[Molden Format]
made by pyscf v[2.4.0]
[Atoms] (AU)
Fe   1   26     3.17068844873907     0.00098706064664     0.12237737881307
O   2   8     0.00000000000000     0.00000000000000    -0.89004350580623
Fe   3   26    -3.17068844873907    -0.00098706064664     0.12237737881307
Cl   4   17     3.53383895113107    -2.07485195383062     3.76228752659000
Cl   5   17     5.54152580550813    -1.85590924879884    -2.78672786652360
Cl   6   17     4.48169216485503     3.92976278472880    -0.95330240907949
Cl   7   17    -3.53383895113107     2.07485195383062     3.76228752659000
Cl   8   17    -5.54152580550813     1.85590924879884    -2.78672786652360
Cl   9   17    -4.48169216485503    -3.92976278472880    -0.95330240907949
[GTO]
1 0
 s    6 1.00
              61132.62  0.0017661109761772
              9179.342   0.013530379817491
              2090.857   0.066731279099873
              589.2479    0.23148229687757
              188.7543    0.47970579352933
              64.44629    0.35019759527624
 s    6 1.00
               1259.98   0.002438014026839
              299.8761   0.032240480354921
              96.84917    0.12657240139338
               36.3102  -0.031399020345658
              14.72996   -0.62075930683366
              6.066075   -0.45029140495706
 s    6 1.00
              50.43485  -0.0038732559842369
              16.83929   0.071965979707118
              7.192086    0.25565909895954
               3.05342   -0.28828369882676
              1.273643   -0.73428219701167
              0.504091   -0.20493529916597
 s    3 1.00
              1.950316   0.056948690305124
              0.736721    0.28829150154463
              0.114177    -1.1381590060981
 s    1 1.00
              0.041148                   1
 p    6 1.00
               1259.98  0.0040280186654072
              299.8761   0.031446467387857
              96.84917    0.13683168863389
               36.3102    0.34872357103281
              14.72996    0.46179306164054
              6.066075    0.20430578302906
 p    6 1.00
              50.43485  -0.0070171278804837
              16.83929  -0.028776599509875
              7.192086   0.061813828947182
               3.05342     0.3954945932639
              1.273643    0.49890589150259
              0.504091    0.17912509694913
 p    3 1.00
              1.950316   -0.45937961634956
              0.736721    0.28521391015091
              0.114177    0.90764853230368
 p    1 1.00
              0.041148                   1
 d    3 1.00
              23.14994   0.088769354792419
              6.122368    0.38963192103518
              1.846601    0.70148163787111
 d    1 1.00
              0.504361                   1
 f    1 1.00
                   0.8                   1

2 0
 s    6 1.00
             5484.6717   0.001831099805527
             825.23495   0.013950098518422
             188.04696    0.06844509273075
               52.9645    0.23271427528445
              16.89757    0.47019295006289
             5.7996353    0.35852086192309
 s    3 1.00
             15.539616   -0.11077750382508
             3.5999336   -0.14802630511126
             1.0137618     1.1307670390447
 s    1 1.00
             0.2700058                   1
 p    3 1.00
             15.539616   0.070874299543311
             3.5999336    0.33975279781076
             1.0137618    0.72715859531445
 p    1 1.00
             0.2700058                   1
 d    1 1.00
                   0.8                   1

3 0
 s    6 1.00
              61132.62  0.0017661109761772
              9179.342   0.013530379817491
              2090.857   0.066731279099873
              589.2479    0.23148229687757
              188.7543    0.47970579352933
              64.44629    0.35019759527624
 s    6 1.00
               1259.98   0.002438014026839
              299.8761   0.032240480354921
              96.84917    0.12657240139338
               36.3102  -0.031399020345658
              14.72996   -0.62075930683366
              6.066075   -0.45029140495706
 s    6 1.00
              50.43485  -0.0038732559842369
              16.83929   0.071965979707118
              7.192086    0.25565909895954
               3.05342   -0.28828369882676
              1.273643   -0.73428219701167
              0.504091   -0.20493529916597
 s    3 1.00
              1.950316   0.056948690305124
              0.736721    0.28829150154463
              0.114177    -1.1381590060981
 s    1 1.00
              0.041148                   1
 p    6 1.00
               1259.98  0.0040280186654072
              299.8761   0.031446467387857
              96.84917    0.13683168863389
               36.3102    0.34872357103281
              14.72996    0.46179306164054
              6.066075    0.20430578302906
 p    6 1.00
              50.43485  -0.0070171278804837
              16.83929  -0.028776599509875
              7.192086   0.061813828947182
               3.05342     0.3954945932639
              1.273643    0.49890589150259
              0.504091    0.17912509694913
 p    3 1.00
              1.950316   -0.45937961634956
              0.736721    0.28521391015091
              0.114177    0.90764853230368
 p    1 1.00
              0.041148                   1
 d    3 1.00
              23.14994   0.088769354792419
              6.122368    0.38963192103518
              1.846601    0.70148163787111
 d    1 1.00
              0.504361                   1
 f    1 1.00
                   0.8                   1

4 0
 s    6 1.00
               25180.1  0.0018330003117875
               3780.35   0.014034002387139
               860.474   0.069097011753181
               242.145    0.23745204038983
               77.3349    0.48303408216255
                26.247    0.33985605780843
 s    6 1.00
               491.765  -0.0022974019889149
               116.984  -0.030714026589855
               37.4153   -0.11252809741822
               13.7834   0.045016038971443
               5.45215    0.58935351021719
               2.22588    0.46520640274012
 s    3 1.00
               3.18649    -0.2518312880459
               1.14427   0.061589315011948
              0.420377     1.0601854225489
 s    1 1.00
              0.142657                   1
 p    6 1.00
               491.765  0.0039894005477754
               116.984   0.030318004162896
               37.4153    0.12988001783353
               13.7834     0.3279510450302
               5.45215    0.45352706227276
               2.22588    0.25215403462269
 p    3 1.00
               3.18649   -0.01429901271425
               1.14427    0.32357228771069
              0.420377    0.74350766110453
 p    1 1.00
              0.142657                   1
 d    1 1.00
                  0.75                   1

5 0
 s    6 1.00
               25180.1  0.0018330003117875
               3780.35   0.014034002387139
               860.474   0.069097011753181
               242.145    0.23745204038983
               77.3349    0.48303408216255
                26.247    0.33985605780843
 s    6 1.00
               491.765  -0.0022974019889149
               116.984  -0.030714026589855
               37.4153   -0.11252809741822
               13.7834   0.045016038971443
               5.45215    0.58935351021719
               2.22588    0.46520640274012
 s    3 1.00
               3.18649    -0.2518312880459
               1.14427   0.061589315011948
              0.420377     1.0601854225489
 s    1 1.00
              0.142657                   1
 p    6 1.00
               491.765  0.0039894005477754
               116.984   0.030318004162896
               37.4153    0.12988001783353
               13.7834     0.3279510450302
               5.45215    0.45352706227276
               2.22588    0.25215403462269
 p    3 1.00
               3.18649   -0.01429901271425
               1.14427    0.32357228771069
              0.420377    0.74350766110453
 p    1 1.00
              0.142657                   1
 d    1 1.00
                  0.75                   1

6 0
 s    6 1.00
               25180.1  0.0018330003117875
               3780.35   0.014034002387139
               860.474   0.069097011753181
               242.145    0.23745204038983
               77.3349    0.48303408216255
                26.247    0.33985605780843
 s    6 1.00
               491.765  -0.0022974019889149
               116.984  -0.030714026589855
               37.4153   -0.11252809741822
               13.7834   0.045016038971443
               5.45215    0.58935351021719
               2.22588    0.46520640274012
 s    3 1.00
               3.18649    -0.2518312880459
               1.14427   0.061589315011948
              0.420377     1.0601854225489
 s    1 1.00
              0.142657                   1
 p    6 1.00
               491.765  0.0039894005477754
               116.984   0.030318004162896
               37.4153    0.12988001783353
               13.7834     0.3279510450302
               5.45215    0.45352706227276
               2.22588    0.25215403462269
 p    3 1.00
               3.18649   -0.01429901271425
               1.14427    0.32357228771069
              0.420377    0.74350766110453
 p    1 1.00
              0.142657                   1
 d    1 1.00
                  0.75                   1

7 0
 s    6 1.00
               25180.1  0.0018330003117875
               3780.35   0.014034002387139
               860.474   0.069097011753181
               242.145    0.23745204038983
               77.3349    0.48303408216255
                26.247    0.33985605780843
 s    6 1.00
               491.765  -0.0022974019889149
               116.984  -0.030714026589855
               37.4153   -0.11252809741822
               13.7834   0.045016038971443
               5.45215    0.58935351021719
               2.22588    0.46520640274012
 s    3 1.00
               3.18649    -0.2518312880459
               1.14427   0.061589315011948
              0.420377     1.0601854225489
 s    1 1.00
              0.142657                   1
 p    6 1.00
               491.765  0.0039894005477754
               116.984   0.030318004162896
               37.4153    0.12988001783353
               13.7834     0.3279510450302
               5.45215    0.45352706227276
               2.22588    0.25215403462269
 p    3 1.00
               3.18649   -0.01429901271425
               1.14427    0.32357228771069
              0.420377    0.74350766110453
 p    1 1.00
              0.142657                   1
 d    1 1.00
                  0.75                   1

8 0
 s    6 1.00
               25180.1  0.0018330003117875
               3780.35   0.014034002387139
               860.474   0.069097011753181
               242.145    0.23745204038983
               77.3349    0.48303408216255
                26.247    0.33985605780843
 s    6 1.00
               491.765  -0.0022974019889149
               116.984  -0.030714026589855
               37.4153   -0.11252809741822
               13.7834   0.045016038971443
               5.45215    0.58935351021719
               2.22588    0.46520640274012
 s    3 1.00
               3.18649    -0.2518312880459
               1.14427   0.061589315011948
              0.420377     1.0601854225489
 s    1 1.00
              0.142657                   1
 p    6 1.00
               491.765  0.0039894005477754
               116.984   0.030318004162896
               37.4153    0.12988001783353
               13.7834     0.3279510450302
               5.45215    0.45352706227276
               2.22588    0.25215403462269
 p    3 1.00
               3.18649   -0.01429901271425
               1.14427    0.32357228771069
              0.420377    0.74350766110453
 p    1 1.00
              0.142657                   1
 d    1 1.00
                  0.75                   1

9 0
 s    6 1.00
               25180.1  0.0018330003117875
               3780.35   0.014034002387139
               860.474   0.069097011753181
               242.145    0.23745204038983
               77.3349    0.48303408216255
                26.247    0.33985605780843
 s    6 1.00
               491.765  -0.0022974019889149
               116.984  -0.030714026589855
               37.4153   -0.11252809741822
               13.7834   0.045016038971443
               5.45215    0.58935351021719
               2.22588    0.46520640274012
 s    3 1.00
               3.18649    -0.2518312880459
               1.14427   0.061589315011948
              0.420377     1.0601854225489
 s    1 1.00
              0.142657                   1
 p    6 1.00
               491.765  0.0039894005477754
               116.984   0.030318004162896
               37.4153    0.12988001783353
               13.7834     0.3279510450302
               5.45215    0.45352706227276
               2.22588    0.25215403462269
 p    3 1.00
               3.18649   -0.01429901271425
               1.14427    0.32357228771069
              0.420377    0.74350766110453
 p    1 1.00
              0.142657                   1
 d    1 1.00
                  0.75                   1

[5d]
[7f]
[9g]

[MO]
 Sym= A
 Ene=               0
 Spin= Alpha
 Occup=    1.00000
   1    0.0012673125250315
   2    0.0055260359657161
   3    -0.013650330068963
   4     0.032165305607123
   5    -0.0030494669456871
   6    0.0023244577344877
   7    0.0018083318806805
   8    -0.0065014123876305
   9    -0.0049786519864044
  10    -0.0033491525480815
  11     0.011300647684825
  12    0.0074004517474998
  13     0.007436181924228
  14    -0.027569586753633
  15    0.0003917807025531
  16    -0.0055579199307587
  17    0.0095650133818323
  18      0.22277957447178
  19     -0.34061763274276
  20      -0.4955861225175
  21       0.3990431803556
  22      0.18038158541083
  23      0.10868526026819
  24     -0.16719949582748
  25     -0.24307427748689
  26        0.196515287453
  27     0.088946354793393
  28    0.0018042385623796
  29    -0.0017365451837516
  30    -0.0018801737626021
  31    0.00020217749435181
  32    -0.00096235196964795
  33    0.0019201146223888
  34    0.00038639655700008
  35    0.00014991958823295
  36    0.00028283717807511
  37    0.0015565470272656
  38    -0.00051913865414271
  39    0.00065768281804186
  40    -0.037610466841285
  41    -0.001058527565756
  42    2.6101321255517e-05
  43    -0.032121294116912
  44    -5.6848120408821e-05
  45    0.00015274694124825
  46    -0.0010064388272995
  47    0.00013215978959347
  48    0.00027315834532753
  49    0.00018373974441732
  50    0.00090704495202631
  51    -0.0017233489100335
  52    0.0061041044618082
  53    0.0096253570955453
  54    -0.0012692924551258
  55    1.7010411466456e-05
  56    -0.00068457164895954
  57    0.0029196781125504
  58    -0.00026184895899279
  59    0.0012544825354183
  60    -0.0036357087991995
  61    -0.00055782128014791
  62    -0.0027719511256675
  63    0.0043837738876219
  64     0.001540687438252
  65    -0.0058575552838022
  66    0.00050740703391616
  67    -0.0010424060094223
  68    4.6615196327472e-05
  69    -0.00025233918943952
  70    7.2114976613061e-05
  71    0.0014323716706329
  72    -0.0018198182450418
  73    0.00035224233143915
  74    -0.0011681415412016
  75    0.00023052561435519
  76    0.00020041618844392
  77    0.00079524653287569
  78    9.5695551255913e-05
  79    -0.00033521511666963
  80    -3.4556591743637e-07
  81    -0.0004690100178842
  82    5.3952029829579e-05
  83    -0.0018291900376457
  84    0.0093086626143321
  85    -0.014119046090814
  86    -0.0089543617358565
  87    -0.014873669726744
  88     0.011419523891717
  89    -0.016514224421695
  90     0.038427650825945
  91    -0.029001310063929
  92     0.041735376856667
  93      0.02367251245701
  94    -0.019380730842187
  95     0.030125045950795
  96    -0.0003145455694337
  97    0.0029915360848618
  98    -0.0012149154640173
  99    0.0007495929384033
 100    -0.0018921195256764
 101    0.00043524378742553
 102    -0.0023633924713295
 103    0.0028319775082747
 104    0.0056179201002905
 105     0.014507807877574
 106     0.023815938773656
 107    -0.011062088754268
 108      -0.0373759910143
 109    -0.061821999825896
 110     0.028554409775877
 111    -0.024630461911613
 112    -0.037879536251364
 113     0.019625697062056
 114    -0.0014731952424669
 115    0.0023808231186656
 116    0.0035841885846057
 117    -0.0041456876613175
 118    -0.0026227230620417
 119    0.00048705065402477
 120    -0.0026849737589213
 121    0.0030111654764865
 122    0.0086253491567363
 123     0.012549918422016
 124    -0.0042165508343245
 125     -0.02500892873788
 126    -0.032411616495247
 127     0.011027647361219
 128     0.064760634385936
 129    -0.020833594757592
 130    0.0046068913623526
 131     0.041164984369678
 132    -0.0023177864116596
 133    0.0023164930451351
 134      0.00367381452211
 135    -0.0033513259827718
 136    -0.0013879662581294
 137    0.00019926528673331
 138    -0.00073793245040472
 139    0.0026315323108694
 140    0.00028826006778714
 141    -0.0015658092820336
 142    0.00055369989364405
 143    0.0005997873629344
 144    0.0042562133862196
 145    -0.0015293571902178
 146    -0.0017983115077857
 147    0.0016650508017701
 148    -0.001361773779657
 149    -0.00062403597253843
 150    9.2213323736686e-05
 151    0.00017807876912027
 152    -4.1583657919719e-05
 153    -0.00011276033571472
 154    0.00016287962953891
 155    -4.5963020422235e-05
 156    0.00029745019960728
 157    -0.00016070547337205
 158    -0.0036045235992647
 159    0.0007407267135426
 160    2.0028124535653e-05
 161    -0.00063567361700167
 162    -0.0020014746491392
 163    7.0896807024924e-05
 164    0.0014758495658606
 165    -0.0015433688867548
 166    -8.6605184152186e-05
 167    0.0015960357428353
 168    4.540937935967e-06
 169    1.2440618683311e-05
 170    -6.5008952962053e-05
 171    7.1188403988798e-05
 172    -6.3027321723518e-05
 173    3.5870259886853e-05
 174    1.6714981615252e-05
 175    0.0010235861360615
 176    -0.002778342576568
 177    -0.00014268163117632
 178    -7.0580599994114e-05
 179    -0.00068512778605937
 180    0.00056140504143802
 181    0.00025581217525789
 182    0.0017761869030974
 183    -0.00091372063402073
 184    -0.00074741070381134
 185    0.0016731908666571
 186    -1.4446733502363e-05
 187    -9.6193736794623e-05
 188    -3.7974577531864e-05
 189    -1.5441006782068e-05
 190    -2.6845071259625e-05
 Sym= A
 Ene=               1
 Spin= Alpha
 Occup=    1.00000
   1    0.00070206437530236
   2    0.0031914042602232
   3    -0.0072704404856608
   4     0.020219244128119
   5    -6.0774513736204e-05
   6    0.0014188161063601
   7    -0.0094364155320235
   8    -0.0042023143093098
   9    -0.0030088930064636
  10     0.016178997076802
  11    0.0069269460114173
  12     0.004523949097461
  13    -0.040174891170503
  14    -0.018257831017764
  15    -0.0033884951293905
  16     0.012402225611185
  17    0.0023009316677459
  18      -0.5373083197149
  19    -0.088732060425486
  20     -0.42137680638405
  21     -0.15515549784613
  22     -0.32232492172773
  23      -0.2625384498384
  24     -0.04294290466715
  25     -0.20588215075544
  26     -0.07537691683459
  27     -0.15769823437803
  28    -0.001461787535303
  29    -0.0026531407508135
  30    -0.0011909150189647
  31    -0.0015148817709996
  32    -0.0026495523897321
  33    0.00021456162390596
  34    -0.0025655840322908
  35    -0.00086415253272642
  36    0.0023956107252808
  37    0.0053018367218006
  38    0.0051101023758587
  39     -0.05855785691077
  40    -0.040608038138527
  41     0.003743989372214
  42    -0.049282954385874
  43    -0.034767106271072
  44    -0.001767382606722
  45    0.00099944899790629
  46    -0.0019546792759303
  47    -0.00062911458719312
  48    0.0011893237462005
  49    0.00031892702009132
  50    0.0014826906269604
  51    -0.0032503958013375
  52    0.0098701083421468
  53    0.0035205876471216
  54    -0.0018076965795204
  55    -0.0016617753698866
  56    -0.00059051475109536
  57    0.0038334963579404
  58    0.0027755771901211
  59    0.00064147480850018
  60    -0.0061831101124295
  61    -0.0075612000879235
  62    -0.0035604349764143
  63    0.0016800425634174
  64    -0.0081467759781719
  65    -0.0045215658677655
  66    0.00074774637314407
  67    -0.00054479268520382
  68    0.00034943703244095
  69    -0.00057258408741168
  70    -0.0012980549535145
  71    0.0019930851620791
  72    -0.0013780119344418
  73    0.0011839661011214
  74    -0.0013924818163155
  75    -0.0040212092876762
  76    8.9345382330702e-05
  77    0.00086602357119039
  78    0.00032493969253224
  79    -0.00033688551870129
  80    0.00074828373681219
  81    -0.00061326345831858
  82    -0.0014493151153309
  83    8.1855501956638e-05
  84    -0.0005540009775672
  85    0.00014697681259918
  86    0.0044524586307943
  87    0.0035136701436138
  88    -0.026118645706611
  89    -0.013685359733209
  90    -0.0092622374413073
  91     0.067974140161245
  92     0.035515401624745
  93    -0.0050868034127561
  94     0.044258854775267
  95     0.022040755034532
  96    0.0051790670088284
  97    -0.00058199178482909
  98    0.0028555263775887
  99    0.0027331028130715
 100    0.00065497028952245
 101    0.0011490953364468
 102    -0.0059447156606579
 103    0.0085891459835064
 104    0.0079354490472995
 105     0.020864839498296
 106    -0.015470660959372
 107     0.007801933370801
 108    -0.053606487026624
 109     0.039886425731731
 110    -0.020789505745059
 111    -0.034460851776567
 112      0.02819028843526
 113    -0.010173659847478
 114    0.0047876218325604
 115    -0.00031510147847659
 116    0.00034649309018283
 117    -0.001348328055512
 118    0.0023646143350746
 119    -0.0017467683616013
 120    0.0087652378372388
 121     -0.01379860034229
 122    -0.0079581674183427
 123    -0.016125523064979
 124    -0.017954769354882
 125    -0.0041205407584723
 126     0.041219063329364
 127     0.045259446763922
 128     0.011163788359311
 129     0.026372282879016
 130     0.032829393532051
 131    0.0076137386551404
 132     -0.00165702505585
 133    -0.00043458377295494
 134     0.001277341768858
 135    0.00079516681287896
 136    0.0025231064181644
 137    0.00025356342055471
 138    -0.0011943360859985
 139    0.0024425589072178
 140    0.0057093665650007
 141    -0.002213093471539
 142    1.8536547038233e-05
 143    0.0018057638228344
 144    0.0060722680939556
 145    -0.00021811326262558
 146    -0.0050530391849307
 147    0.0024913979835847
 148    -0.00016889244298843
 149    -0.0043799725238254
 150    8.6081992750843e-06
 151    0.0003539716216325
 152    3.0986731477721e-05
 153    -0.00016229341750525
 154    3.7414708211859e-05
 155    6.1376029557953e-05
 156    -0.00025650739142025
 157    0.00070649871797484
 158    0.00014151110682388
 159    -0.00053528202069534
 160    -0.00040102607578896
 161    -0.00077480748067495
 162    0.0015662009241443
 163    0.00091039253195962
 164    0.0018807320235794
 165    0.00064061614334691
 166    0.0024355606391616
 167     0.002873052863683
 168    8.3066662257369e-05
 169    -3.9173859437666e-05
 170    -5.5241640914218e-05
 171    -5.3142274762001e-05
 172    -6.8071261045037e-05
 173    -0.00021195414855217
 174    0.00097150259898228
 175    -0.002136430587809
 176    -0.0054248413912251
 177    0.0024570107618441
 178    0.00061560940247986
 179    -0.00083604504698842
 180    -0.0068236077602027
 181    -0.0019884099679575
 182    0.0022097348559856
 183    -0.0023470058548116
 184    -0.00094277933284495
 185    0.0009699080398966
 186    -0.00013975494770703
 187    -0.00015084357509875
 188    -6.6449945447581e-05
 189    0.00024120681163002
 190    0.00018684258106453
 Sym= A
 Ene=               2
 Spin= Alpha
 Occup=    1.00000
   1    -0.00025715482074197
   2    -0.0010910887278445
   3    0.0028383449112544
   4    -0.0059720551843493
   5    -0.004790113002306
   6    0.00074708557553515
   7    -0.005479970105438
   8    0.0022049235734797
   9    -0.0014576313919727
  10     0.011493930172818
  11    -0.0053836114071694
  12    0.0027922915553193
  13    -0.019237310063602
  14    0.0060787617187971
  15    0.0016875723615882
  16     0.018484606859302
  17    -0.010463494650659
  18     -0.41185190780204
  19     -0.22791588295552
  20      0.14103435648967
  21    -0.055132005005599
  22      0.59683754110306
  23     -0.19661558681422
  24      -0.1088105163837
  25     0.067173987530201
  26      -0.0258687643682
  27      0.28490712389199
  28    -0.0002161663087134
  29    -0.0025359303329564
  30    -0.0011988698367465
  31    -0.0027698717004267
  32    0.0038862005105027
  33    0.0013860843969457
  34    0.0057970285252701
  35    -0.0013654287647471
  36    0.0041545936143059
  37    0.0049175375029781
  38     0.010967187271291
  39      0.10397210845701
  40    -0.056297713371583
  41    0.0093082769648951
  42     0.095939482314708
  43    -0.050573829462128
  44    -0.0019421220705306
  45    0.0015750738579901
  46     0.002481317617177
  47    -0.00051039805357189
  48    -0.0019470018316887
  49    0.00048111489071213
  50    0.0020827668935196
  51    -0.0052471614634677
  52      0.01192764219276
  53      0.01001401265048
  54    -0.0028058746312162
  55    0.0032017325080298
  56    -0.0010002100508505
  57    0.0060794015566471
  58    -0.0055658433929407
  59    0.0011896016156002
  60    -0.0093460197374195
  61     0.013983591693077
  62    -0.0057595002372679
  63    0.0040871496045103
  64    0.0055082940350346
  65    -0.0040498267668563
  66    0.00087417351343139
  67    -0.00045727814958377
  68    -0.00054261885369232
  69    -0.0014347570011379
  70    0.0022366599963675
  71    0.0017851278882962
  72    -0.0019261173961101
  73    -0.0012571759929889
  74    -0.0028135808219606
  75    0.0066348913711476
  76    0.00021411791831991
  77    0.0011734516863602
  78    -0.00030415106909459
  79    -0.00017389148178846
  80    -0.0012145532796828
  81    -0.00081467197353144
  82     0.002404103122613
  83    0.0026751661545698
  84     -0.01373477980129
  85     0.020450035412048
  86     0.027370142942788
  87    -0.010512145912102
  88    -0.023517127726671
  89     0.023247383332701
  90     0.026998162381346
  91     0.060731039821639
  92    -0.059702545959592
  93     0.017250957819012
  94     0.042506150607751
  95    -0.045822392576884
  96    0.00063899576535365
  97     0.003361569387552
  98    0.0017878150562312
  99    0.0011884784266318
 100    -0.00089165064345508
 101    0.00099113287346963
 102    -0.0048284047705075
 103    0.0086004390263683
 104    0.0062573849055998
 105    0.0080390681029593
 106    -0.0073629073704462
 107    -0.003844704827372
 108     -0.02073617084701
 109     0.019323860117418
 110    0.0096352896198369
 111    -0.014328592889153
 112      0.01337203669716
 113    0.0089329450554447
 114    0.00045310456797122
 115    -0.00027745128013418
 116    0.00048566668184191
 117    -0.00023035690939072
 118    0.0011612745943763
 119    -0.0032166820497774
 120      0.01618598448821
 121    -0.025551325771285
 122    -0.030117189896786
 123    0.0034011496106747
 124    -0.037379244503247
 125     0.018830012806397
 126    -0.0088187776543587
 127      0.09584088128865
 128    -0.048220265160883
 129    -0.0034861802872339
 130     0.071133261220132
 131    -0.033424383862226
 132    0.00029430364206304
 133    3.6545483285075e-05
 134    -0.0019240849512161
 135    -0.0017476272286862
 136    -0.0029872050444476
 137    8.2913497951767e-05
 138    -0.0002761604685119
 139    0.0012169084100552
 140    -0.0011124337251348
 141    -0.00013199471591157
 142    0.0015786261149854
 143    -0.000159394669261
 144    0.00048196818430978
 145    -0.003963387620944
 146    0.00022610241289366
 147    0.00029879295737368
 148    -0.0054574309129624
 149    0.0018386662103513
 150    0.00011418902972355
 151    5.205833191531e-05
 152    -0.00011265598991901
 153    4.8558766183776e-05
 154    0.00022375725655499
 155    -0.00023437133554968
 156    0.0011193227617794
 157    -0.002217874280031
 158    -0.0073817005189384
 159    0.0031526849970065
 160    0.00075858376620008
 161    -0.00068874692613436
 162    -0.0086924276485067
 163    -0.0016688032343312
 164    0.0015696841839269
 165    -0.0051551607050302
 166    -0.002221757759018
 167    -0.00053051651432388
 168    -9.5714823126947e-05
 169    3.003042497309e-05
 170    -6.2245284952224e-05
 171    0.0002878695391973
 172    -9.785388377131e-07
 173    0.00048352136281282
 174    -0.0019623533113152
 175    0.0057868137915809
 176    0.0038972652402734
 177    -0.0041712282127579
 178    -0.0015870684456213
 179    -0.00079764557737203
 180     0.011466790913236
 181    0.0046923192977826
 182    0.0019213840322193
 183    0.0061795862139488
 184    0.0027717267114721
 185    0.0042160049761307
 186     0.000314370701374
 187    -5.1529870216835e-05
 188    5.2529449918803e-05
 189    -0.00053644195852991
 190    -0.00050882159735491
 Sym= A
 Ene=               3
 Spin= Alpha
 Occup=    1.00000
   1    0.00063359512138347
   2    0.0022675629816683
   3    -0.0078481206055937
   4    0.0051062303758536
   5    -0.0080805735749911
   6     0.011161217528269
   7    -0.0060067574745869
   8    -0.0067859382870249
   9     -0.02349153314724
  10      0.01121583051082
  11     0.012974932157896
  12     0.036585993298499
  13    -0.023839475553548
  14     -0.02680430782407
  15    -0.0073720258015142
  16     0.011647763054345
  17     0.017825035900842
  18     0.028502808508592
  19      0.59489063600381
  20     -0.35839243054979
  21     -0.10254770169711
  22      0.31777404992171
  23     0.011581202294957
  24      0.28418134665956
  25     -0.17050716188184
  26    -0.045424391465839
  27      0.15040140990015
  28    -0.0025920546240458
  29     0.004961756984763
  30    -0.0016118191803521
  31    0.0033203379108312