[Molden Format]
made by pyscf v[2.4.0]
[Atoms] (AU)
Fe   1   26     3.17068844873907     0.00098706064664     0.12237737881307
O   2   8     0.00000000000000     0.00000000000000    -0.89004350580623
Fe   3   26    -3.17068844873907    -0.00098706064664     0.12237737881307
Cl   4   17     3.53383895113107    -2.07485195383062     3.76228752659000
Cl   5   17     5.54152580550813    -1.85590924879884    -2.78672786652360
Cl   6   17     4.48169216485503     3.92976278472880    -0.95330240907949
Cl   7   17    -3.53383895113107     2.07485195383062     3.76228752659000
Cl   8   17    -5.54152580550813     1.85590924879884    -2.78672786652360
Cl   9   17    -4.48169216485503    -3.92976278472880    -0.95330240907949
[GTO]
1 0
 s    6 1.00
              61132.62  0.0017661109761772
              9179.342   0.013530379817491
              2090.857   0.066731279099873
              589.2479    0.23148229687757
              188.7543    0.47970579352933
              64.44629    0.35019759527624
 s    6 1.00
               1259.98   0.002438014026839
              299.8761   0.032240480354921
              96.84917    0.12657240139338
               36.3102  -0.031399020345658
              14.72996   -0.62075930683366
              6.066075   -0.45029140495706
 s    6 1.00
              50.43485  -0.0038732559842369
              16.83929   0.071965979707118
              7.192086    0.25565909895954
               3.05342   -0.28828369882676
              1.273643   -0.73428219701167
              0.504091   -0.20493529916597
 s    3 1.00
              1.950316   0.056948690305124
              0.736721    0.28829150154463
              0.114177    -1.1381590060981
 s    1 1.00
              0.041148                   1
 p    6 1.00
               1259.98  0.0040280186654072
              299.8761   0.031446467387857
              96.84917    0.13683168863389
               36.3102    0.34872357103281
              14.72996    0.46179306164054
              6.066075    0.20430578302906
 p    6 1.00
              50.43485  -0.0070171278804837
              16.83929  -0.028776599509875
              7.192086   0.061813828947182
               3.05342     0.3954945932639
              1.273643    0.49890589150259
              0.504091    0.17912509694913
 p    3 1.00
              1.950316   -0.45937961634956
              0.736721    0.28521391015091
              0.114177    0.90764853230368
 p    1 1.00
              0.041148                   1
 d    3 1.00
              23.14994   0.088769354792419
              6.122368    0.38963192103518
              1.846601    0.70148163787111
 d    1 1.00
              0.504361                   1
 f    1 1.00
                   0.8                   1

2 0
 s    6 1.00
             5484.6717   0.001831099805527
             825.23495   0.013950098518422
             188.04696    0.06844509273075
               52.9645    0.23271427528445
              16.89757    0.47019295006289
             5.7996353    0.35852086192309
 s    3 1.00
             15.539616   -0.11077750382508
             3.5999336   -0.14802630511126
             1.0137618     1.1307670390447
 s    1 1.00
             0.2700058                   1
 p    3 1.00
             15.539616   0.070874299543311
             3.5999336    0.33975279781076
             1.0137618    0.72715859531445
 p    1 1.00
             0.2700058                   1
 d    1 1.00
                   0.8                   1

3 0
 s    6 1.00
              61132.62  0.0017661109761772
              9179.342   0.013530379817491
              2090.857   0.066731279099873
              589.2479    0.23148229687757
              188.7543    0.47970579352933
              64.44629    0.35019759527624
 s    6 1.00
               1259.98   0.002438014026839
              299.8761   0.032240480354921
              96.84917    0.12657240139338
               36.3102  -0.031399020345658
              14.72996   -0.62075930683366
              6.066075   -0.45029140495706
 s    6 1.00
              50.43485  -0.0038732559842369
              16.83929   0.071965979707118
              7.192086    0.25565909895954
               3.05342   -0.28828369882676
              1.273643   -0.73428219701167
              0.504091   -0.20493529916597
 s    3 1.00
              1.950316   0.056948690305124
              0.736721    0.28829150154463
              0.114177    -1.1381590060981
 s    1 1.00
              0.041148                   1
 p    6 1.00
               1259.98  0.0040280186654072
              299.8761   0.031446467387857
              96.84917    0.13683168863389
               36.3102    0.34872357103281
              14.72996    0.46179306164054
              6.066075    0.20430578302906
 p    6 1.00
              50.43485  -0.0070171278804837
              16.83929  -0.028776599509875
              7.192086   0.061813828947182
               3.05342     0.3954945932639
              1.273643    0.49890589150259
              0.504091    0.17912509694913
 p    3 1.00
              1.950316   -0.45937961634956
              0.736721    0.28521391015091
              0.114177    0.90764853230368
 p    1 1.00
              0.041148                   1
 d    3 1.00
              23.14994   0.088769354792419
              6.122368    0.38963192103518
              1.846601    0.70148163787111
 d    1 1.00
              0.504361                   1
 f    1 1.00
                   0.8                   1

4 0
 s    6 1.00
               25180.1  0.0018330003117875
               3780.35   0.014034002387139
               860.474   0.069097011753181
               242.145    0.23745204038983
               77.3349    0.48303408216255
                26.247    0.33985605780843
 s    6 1.00
               491.765  -0.0022974019889149
               116.984  -0.030714026589855
               37.4153   -0.11252809741822
               13.7834   0.045016038971443
               5.45215    0.58935351021719
               2.22588    0.46520640274012
 s    3 1.00
               3.18649    -0.2518312880459
               1.14427   0.061589315011948
              0.420377     1.0601854225489
 s    1 1.00
              0.142657                   1
 p    6 1.00
               491.765  0.0039894005477754
               116.984   0.030318004162896
               37.4153    0.12988001783353
               13.7834     0.3279510450302
               5.45215    0.45352706227276
               2.22588    0.25215403462269
 p    3 1.00
               3.18649   -0.01429901271425
               1.14427    0.32357228771069
              0.420377    0.74350766110453
 p    1 1.00
              0.142657                   1
 d    1 1.00
                  0.75                   1

5 0
 s    6 1.00
               25180.1  0.0018330003117875
               3780.35   0.014034002387139
               860.474   0.069097011753181
               242.145    0.23745204038983
               77.3349    0.48303408216255
                26.247    0.33985605780843
 s    6 1.00
               491.765  -0.0022974019889149
               116.984  -0.030714026589855
               37.4153   -0.11252809741822
               13.7834   0.045016038971443
               5.45215    0.58935351021719
               2.22588    0.46520640274012
 s    3 1.00
               3.18649    -0.2518312880459
               1.14427   0.061589315011948
              0.420377     1.0601854225489
 s    1 1.00
              0.142657                   1
 p    6 1.00
               491.765  0.0039894005477754
               116.984   0.030318004162896
               37.4153    0.12988001783353
               13.7834     0.3279510450302
               5.45215    0.45352706227276
               2.22588    0.25215403462269
 p    3 1.00
               3.18649   -0.01429901271425
               1.14427    0.32357228771069
              0.420377    0.74350766110453
 p    1 1.00
              0.142657                   1
 d    1 1.00
                  0.75                   1

6 0
 s    6 1.00
               25180.1  0.0018330003117875
               3780.35   0.014034002387139
               860.474   0.069097011753181
               242.145    0.23745204038983
               77.3349    0.48303408216255
                26.247    0.33985605780843
 s    6 1.00
               491.765  -0.0022974019889149
               116.984  -0.030714026589855
               37.4153   -0.11252809741822
               13.7834   0.045016038971443
               5.45215    0.58935351021719
               2.22588    0.46520640274012
 s    3 1.00
               3.18649    -0.2518312880459
               1.14427   0.061589315011948
              0.420377     1.0601854225489
 s    1 1.00
              0.142657                   1
 p    6 1.00
               491.765  0.0039894005477754
               116.984   0.030318004162896
               37.4153    0.12988001783353
               13.7834     0.3279510450302
               5.45215    0.45352706227276
               2.22588    0.25215403462269
 p    3 1.00
               3.18649   -0.01429901271425
               1.14427    0.32357228771069
              0.420377    0.74350766110453
 p    1 1.00
              0.142657                   1
 d    1 1.00
                  0.75                   1

7 0
 s    6 1.00
               25180.1  0.0018330003117875
               3780.35   0.014034002387139
               860.474   0.069097011753181
               242.145    0.23745204038983
               77.3349    0.48303408216255
                26.247    0.33985605780843
 s    6 1.00
               491.765  -0.0022974019889149
               116.984  -0.030714026589855
               37.4153   -0.11252809741822
               13.7834   0.045016038971443
               5.45215    0.58935351021719
               2.22588    0.46520640274012
 s    3 1.00
               3.18649    -0.2518312880459
               1.14427   0.061589315011948
              0.420377     1.0601854225489
 s    1 1.00
              0.142657                   1
 p    6 1.00
               491.765  0.0039894005477754
               116.984   0.030318004162896
               37.4153    0.12988001783353
               13.7834     0.3279510450302
               5.45215    0.45352706227276
               2.22588    0.25215403462269
 p    3 1.00
               3.18649   -0.01429901271425
               1.14427    0.32357228771069
              0.420377    0.74350766110453
 p    1 1.00
              0.142657                   1
 d    1 1.00
                  0.75                   1

8 0
 s    6 1.00
               25180.1  0.0018330003117875
               3780.35   0.014034002387139
               860.474   0.069097011753181
               242.145    0.23745204038983
               77.3349    0.48303408216255
                26.247    0.33985605780843
 s    6 1.00
               491.765  -0.0022974019889149
               116.984  -0.030714026589855
               37.4153   -0.11252809741822
               13.7834   0.045016038971443
               5.45215    0.58935351021719
               2.22588    0.46520640274012
 s    3 1.00
               3.18649    -0.2518312880459
               1.14427   0.061589315011948
              0.420377     1.0601854225489
 s    1 1.00
              0.142657                   1
 p    6 1.00
               491.765  0.0039894005477754
               116.984   0.030318004162896
               37.4153    0.12988001783353
               13.7834     0.3279510450302
               5.45215    0.45352706227276
               2.22588    0.25215403462269
 p    3 1.00
               3.18649   -0.01429901271425
               1.14427    0.32357228771069
              0.420377    0.74350766110453
 p    1 1.00
              0.142657                   1
 d    1 1.00
                  0.75                   1

9 0
 s    6 1.00
               25180.1  0.0018330003117875
               3780.35   0.014034002387139
               860.474   0.069097011753181
               242.145    0.23745204038983
               77.3349    0.48303408216255
                26.247    0.33985605780843
 s    6 1.00
               491.765  -0.0022974019889149
               116.984  -0.030714026589855
               37.4153   -0.11252809741822
               13.7834   0.045016038971443
               5.45215    0.58935351021719
               2.22588    0.46520640274012
 s    3 1.00
               3.18649    -0.2518312880459
               1.14427   0.061589315011948
              0.420377     1.0601854225489
 s    1 1.00
              0.142657                   1
 p    6 1.00
               491.765  0.0039894005477754
               116.984   0.030318004162896
               37.4153    0.12988001783353
               13.7834     0.3279510450302
               5.45215    0.45352706227276
               2.22588    0.25215403462269
 p    3 1.00
               3.18649   -0.01429901271425
               1.14427    0.32357228771069
              0.420377    0.74350766110453
 p    1 1.00
              0.142657                   1
 d    1 1.00
                  0.75                   1

[5d]
[7f]
[9g]

[MO]
 Sym= A
 Ene=               0
 Spin= Alpha
 Occup=    1.00000
   1    0.0014742075318556
   2    0.0053161154815038
   3    -0.017348586397266
   4     0.013294600046904
   5    -0.0042526277177727
   6     0.016153964192909
   7    0.0022025897176426
   8    -0.0017500134511708
   9    -0.034858971915126
  10    -0.0053904464023036
  11    0.0019849737097394
  12     0.049259022319691
  13    0.0069009140202553
  14    -0.011578534178658
  15    -0.0099465057435164
  16    -0.010532703924245
  17    0.0094739642092658
  18      0.19219471500696
  19      0.49033097459728
  20     -0.27420975572273
  21      0.27433231207083
  22     -0.41939333936661
  23     0.088718900043889
  24       0.2345716131618
  25     -0.13160966143912
  26      0.13409216948762
  27     -0.19896659039386
  28    -0.0016120226955265
  29    0.0025232719354375
  30    -0.00057798798176369
  31    0.0051050207014439
  32    -0.0022836342299522
  33    0.00074855695392545
  34    -0.0045768278421565
  35     0.013458694303062
  36    -0.027570376449213
  37    -0.050436926754109
  38    -0.076116490812019
  39    -0.066698841334228
  40     0.035440236397631
  41    -0.090910041135512
  42    -0.068289072516174
  43     0.030866403597538
  44    0.0026577390482701
  45    -0.005742719443795
  46    -0.0021741997902476
  47    -0.003192913022918
  48    0.0014342617732062
  49    -0.0016436367016904
  50    -0.0062093023362509
  51     0.018831998822323
  52    -0.026668605303713
  53    -0.0027068238824815
  54    0.0073040803198698
  55    -0.0026493461501939
  56    -0.00093451794026468
  57    -0.016486141881887
  58    0.0041189114726985
  59    0.0044267581294364
  60     0.019582814912294
  61    -0.011446643777264
  62    0.0031918360440549
  63    -0.00065773756482472
  64    -0.0052639053600402
  65    0.0036656609622652
  66    -0.0026188918797549
  67    -0.0026850194447566
  68    0.00023566328494898
  69    0.0050619598206994
  70    0.00016234390253722
  71    -0.002688361971993
  72    -0.00088440738177231
  73    0.00086194509698946
  74    0.0052763975588694
  75    -0.0042419112041272
  76    0.00047148280750611
  77    -0.0009005910795439
  78    0.00010876618609893
  79    -0.00090296748565766
  80    0.00083078589036693
  81    0.0013794690054349
  82    -0.0017729210574367
  83    -0.0021028003157353
  84     0.010936008260045
  85    -0.015509556755306
  86    -0.021132510201389
  87     0.021726992962788
  88     0.015962014876697
  89    -0.021296219132568
  90    -0.056529441126378
  91    -0.040917565336776
  92     0.054464413985626
  93    -0.037260255071894
  94    -0.029968009386494
  95     0.042823016165108
  96    0.00027941362222868
  97    -0.0051080759939919
  98    -0.0015418831387318
  99    -0.00066138656587513
 100    0.0024994514089214
 101    0.0014639622064095
 102    -0.0072746121226239
 103     0.011927010073862
 104    0.0066130983768187
 105     0.017192731494268
 106    -0.003382294700078
 107    -0.0097370196481832
 108    -0.044298702373789
 109    0.0082622802736646
 110     0.024772716268999
 111    -0.030610441270621
 112    0.0052264140380625
 113     0.015817319468436
 114    0.0011946255611917
 115    0.00096203528598738
 116    0.00052153644518056
 117    -0.00076711716288329
 118    -0.00042535023647676
 119    0.0028966473278312
 120    -0.014387156155926
 121     0.023637539944464
 122     0.023887687894602
 123    0.0064649771843676
 124       0.0303508941721
 125    -0.018044766277161
 126    -0.016778934059329
 127    -0.077711070910653
 128     0.046296670906552
 129     -0.01509447707754
 130    -0.055621082399593
 131     0.032125644222429
 132    -0.00039648592315472
 133    0.00069798890548549
 134     0.001570134800965
 135    0.0007275916699238
 136    0.0012974610630733
 137    -0.00020149087408132
 138     0.000988917046313
 139    -0.0018344067372669
 140    -0.0039907819982129
 141    -0.00060125096941259
 142    -0.0020914909604814
 143    -0.00072425536018748
 144    0.0012900042069403
 145    0.0054091045393325
 146    0.0021262034093448
 147    -0.00042598990391983
 148    0.0067413338588625
 149    0.0017233830071168
 150    2.3441554979061e-06
 151    -0.00033705534374239
 152    4.1408397846999e-05
 153    2.3129780439261e-05
 154    -0.00034601805253283
 155    -1.849398125537e-07
 156    1.4145330451363e-05
 157    0.00013896556330602
 158    0.0042592969556737
 159    -0.0008131470814283
 160    -0.0010966370472763
 161    0.0010159072111185
 162     0.002614734491073
 163     0.002608392271321
 164    -0.0023826191845046
 165    -0.00077825881093443
 166    0.0026405767458732
 167    -0.00066291138252858
 168    -0.00023005650643688
 169    0.00017256973883208
 170    6.6861664563382e-05
 171    0.00020080136210558
 172    -0.00022520482247792
 173    -0.00060834660712462
 174     0.002690667423185
 175    -0.0064496568889612
 176    -0.0073005024936151
 177    0.0043926564009568
 178    0.0026683478138381
 179    0.00089018306723883
 180    -0.011908772399279
 181    -0.0074535666282529
 182    -0.0022024114919685
 183    -0.0089375421259687
 184    -0.0059023535737915
 185    -0.0042977979409594
 186    -0.00041717544642472
 187    -7.5692308573146e-06
 188    -0.00017084694042615
 189    0.00051701777712429
 190    0.00077376508022763
 Sym= A
 Ene=               1
 Spin= Alpha
 Occup=    1.00000
   1    -0.00051823577883637
   2    -0.0010750173253895
   3    0.0071207585665866
   4      0.01246385847018
   5    0.0028151317028278
   6    -0.012395987743787
   7    -0.010189152589573
   8    -0.011451334121675
   9     0.027178280706643
  10     0.018222605748635
  11     0.024128857647917
  12    -0.036136469098208
  13    -0.041841859315481
  14    -0.037467812921596
  15    0.0033853054134279
  16     0.015609015902193
  17     0.019023602844484
  18     -0.15908999066328
  19     0.043348449633818
  20     -0.53790724183688
  21     -0.52800582962369
  22    -0.025224941073714
  23    -0.079156084328961
  24     0.016534279110215
  25     -0.25704642207076
  26     -0.25357785639855
  27    -0.015825972297648
  28    -0.00082525049519645
  29    0.0019273479542646
  30    -0.00055935282180768
  31    -0.0022358645671048
  32    -0.00055016484479235
  33    -0.0026440575082556
  34    -0.00023320815431603
  35    -0.010602834113116
  36     0.019228843601996
  37     0.043213846267077
  38     0.057456797741315
  39    -0.012714269130422
  40     0.039063623035124
  41     0.072251316041709
  42    -0.0086762004227243
  43     0.047894365372281
  44    -0.00075553510272441
  45    0.0033762403604276
  46    -0.0011839134019334
  47    0.0028707147789173
  48    0.00051590989009445
  49    0.00071518928187183
  50    0.0024745812755752
  51    -0.0087451199640622
  52    0.0085460045947459
  53    -0.0036536898097331
  54    -0.0024148122872485
  55    -0.00067242298463163
  56    0.0026069303812634
  57    0.0062715860811646
  58    0.00078587226499261
  59    -0.0059812884629287
  60    -0.0045885291963183
  61    -0.0034472918616361
  62    0.0065569903450949
  63    -6.8331638682469e-05
  64    -0.0042555707660045
  65    -0.00073539790621559
  66    0.0016005373958578
  67    0.0015030860320399
  68    0.00016913233147244
  69    -0.0030490900357068
  70    0.00010520867333511
  71    0.00012785631903655
  72    0.0030568952867272
  73    0.0002006170353025
  74    -0.0016249833668269
  75    -0.0011275812801296
  76    -0.00066921498978399
  77    -0.00070149674024583
  78    0.0001442400982145
  79    0.0011001534582142
  80    0.00027443474162938
  81    -0.00020765277708615
  82    -0.00037197134187588
  83    -0.0026373472512714
  84     0.013111034114517
  85    -0.021751502941342
  86    -0.019357651305347
  87    -0.0067799030749769
  88    -0.0097976796017852
  89    -0.038945455165777
  90     0.017883013433715
  91     0.026239077461033
  92      0.10075314330816
  93     0.012765986207282
  94      0.01206632613745
  95     0.069846271429751
  96    0.0052813090331338
  97    0.0012050391480855
  98    0.0025297462336294
  99     0.002294483935121
 100    6.6686724960543e-05
 101    0.0029261133693816
 102    -0.015145199348423
 103      0.02203981027036
 104     0.031242895140083
 105     0.014405770562609
 106    -0.023434960331489
 107    -0.021344606067897
 108     -0.03672388324151
 109     0.060451908761601
 110     0.054610243744395
 111    -0.027618205699132
 112     0.046939219699863
 113     0.045446230763372
 114    0.00094115436132047
 115    -0.0013042629152265
 116    -0.00094553939402031
 117    0.00074510848047064
 118    0.00032552335744971
 119    -0.0037996129737586
 120      0.01860485334823
 121    -0.032015514469752
 122    -0.020899771940289
 123    -0.026764308864023
 124    -0.039064840494283
 125    -0.0043652804187928
 126     0.068949831678964
 127     0.099529190474833
 128      0.01228497085274
 129     0.046282394137087
 130     0.073105135709104
 131    0.0053164954998649
 132    -0.0021667386361882
 133    -2.3852996504628e-05
 134    0.0026205980569683
 135    0.0003965933751988
 136    0.0037557043433294
 137    -3.6651642585457e-06
 138    -9.8246959812143e-05
 139    -0.0004779227089861
 140    0.0013651022833488
 141    0.00015020900525255
 142    -8.7119628148558e-05
 143    0.00077158432312813
 144    -0.00015739310219318
 145    0.00030311420702496
 146    -0.0019100080172546
 147    -0.0015735987615777
 148    0.0003950953820648
 149     -0.00243800971534
 150    -1.7619620869371e-05
 151    7.6622193602396e-05
 152    0.00011027633729002
 153    1.0559859390811e-05
 154    1.9799578593458e-06
 155    0.00031799336038253
 156    -0.0013620995931507
 157    0.0035297409338305
 158    0.0038081182191758
 159    -0.0028978090598211
 160    0.00039763675720574
 161    -8.8873187269664e-06
 162    0.0078963550638275
 163    -0.0012450983232123
 164    0.00010470374053455
 165    0.0053298696787881
 166    -0.00029027654348488
 167    0.0011992561399864
 168    0.00028129643452444
 169    -7.1753756422179e-05
 170    2.0469129976103e-05
 171    -0.00039332149841032
 172    0.00023151751131232
 173    9.7259089077609e-05
 174    -0.00048567510095508
 175    0.00079745978351038
 176    0.00077213229298768
 177    -0.00024089737659283
 178    -0.00076730259525689
 179    0.00066039321914918
 180    0.0004499478579215
 181    0.0019078854759138
 182    -0.0017437624235463
 183    0.0021687665232765
 184    0.0021561970542057
 185    -0.001586768315886
 186    0.00017475433254767
 187    0.00010056025473953
 188    9.9701989074131e-05
 189    -1.3391487863374e-05
 190    -0.00036100559588954
 Sym= A
 Ene=               2
 Spin= Alpha
 Occup=    1.00000
   1    -4.4423780047601e-05
   2    -0.0011544803606123
   3    -0.00087175716452663
   4    -0.022127285413003
   5    -0.0069195457388839
   6     0.013879400264158
   7    -0.0046075052898495
   8    0.0049254894109491
   9    -0.029631166275362
  10    0.0096037063668966
  11    -0.010019635151339
  12     0.043229258031846
  13    -0.016710907286347
  14     0.016152105971158
  15    -0.0079659605884648
  16     0.014134234145024
  17    -0.0053954122370455
  18     -0.32350291327629
  19      0.57885020038617
  20      0.27476685679012
  21     -0.14708186299908
  22      0.25634748459511
  23     -0.15675617155471
  24      0.27983589053161
  25      0.13508510634124
  26    -0.069863365524334
  27      0.11940329075134
  28    -0.0032349234681324
  29    0.0025173002408439
  30    -0.00035088030204745
  31    0.0021704444195599
  32    0.0038158439790873
  33    0.00035694614720542
  34     0.002444156993219
  35     0.011060614804003
  36    -0.022309494202014
  37    -0.043218635542073
  38      -0.0614030693145
  39     0.048714021921633
  40      0.02739194266677
  41    -0.074241212016049
  42     0.051281177820135
  43     0.022127360090728
  44    0.0011014526783322
  45    -0.0042078599719217
  46    0.0016298582211392
  47    -0.0033701672891295
  48    -0.001054800969842
  49    -0.0013079178895309
  50    -0.0049437096432931
  51     0.015031673769356
  52    -0.021405434623701
  53    -0.0012331414400879
  54    0.0056852876267415
  55    0.0017936868538856
  56    -0.0013256614470699
  57    -0.013263531570261
  58    -0.0027641559352455
  59     0.004050669458982
  60     0.014104013037847
  61    0.0080797941167374
  62    -0.00058804820675483
  63    -0.00015056097169977
  64    0.00072994959246093
  65    0.0048360992271182
  66    -0.0019016105326596
  67    -0.0020714277918378
  68    0.00012194236947385
  69      0.00411283391738
  70    -2.0269109158452e-06
  71    -0.0026107745372857
  72    -0.00076476039407779
  73    -0.0008673297031722
  74    0.0036623754014131
  75    0.0030541302326392
  76    0.00046762041838704
  77    -0.00069588183866934
  78    -0.00035398935881541
  79    -0.00058942527182735
  80    -0.00068941644171996
  81    0.0011321509974628
  82    0.0011421561011218
  83    0.0016819427184285
  84    -0.0085152009505277
  85     0.013157300434447
  86    0.0099855686199038
  87     0.020092440681725
  88    -0.013163935618274
  89     0.013231021165675
  90    -0.052342954297614
  91     0.033795340962507
  92    -0.033552811535186
  93    -0.034253627448723
  94      0.02142123251234
  95    -0.023023655144328
  96    0.00080777490058745
  97    -0.0032926607197036
  98    0.0011326345376143
  99    -0.00018870742272804
 100    0.0029588113763136
 101    0.0029817952618812
 102    -0.014470568363696
 103     0.025911715608302
 104     0.016471311996286
 105       0.0147633033423
 106    -0.032137607455093
 107    -0.015759315600948
 108    -0.038209672698438
 109     0.083126782840362
 110     0.040183924557597
 111    -0.028673722523325
 112     0.054574291259048
 113     0.029319012979247
 114    0.0015580882792417
 115    -0.0014101472892238
 116    -0.0019348282391138
 117    0.0028081842356364
 118    0.0022405319664867
 119    -0.0015285777541425
 120    0.0078794665980592
 121    -0.011592233711862
 122    -0.019780664950453
 123    0.00086714101412955
 124    -0.013057589244712
 125     0.023559375796788
 126    -0.0022812790556247
 127     0.033619765865266
 128    -0.060867468316389
 129    -0.0028662203913439
 130     0.030061857480078
 131    -0.039810000826574
 132    0.0018597731656565
 133    -0.00080298884348379
 134    -0.0033305275939559
 135    0.0009808919371483
 136    -0.0013540516195191
 137    -0.00032215870407143
 138    0.0015635845026444
 139    -0.0029370528886152
 140    -0.0070085334364202
 141    0.0011952396144753
 142    -0.00050819501790329
 143    -0.0018529672313825
 144    -0.0033742936798855
 145    0.0014217530021993
 146    0.0051065227484524
 147    -0.0028421729070794
 148    0.0016927022078002
 149    0.0054255772624817
 150    7.4381230575781e-05
 151    -0.00052507318201758
 152    3.1857787196235e-05
 153    0.00019020706359781
 154    -0.00025796329495322
 155    -0.00027704330417757
 156    0.0011732895690151
 157    -0.0030965663505688
 158    -0.00094699502878136
 159    0.0022171397125871
 160    -0.00011272964299944
 161    0.0012045143692522
 162    -0.0058776082532093
 163    0.00034163962024684
 164    -0.0030753516427596
 165    -0.0055680181181711
 166    -0.00029406055051305
 167    -0.0034707313275459
 168    -0.00031586106506693
 169    0.00014860404386459
 170    9.4178172718906e-05
 171    0.00039740496157323
 172    -9.6171214467578e-05
 173    3.4037594434503e-05
 174    -4.3625416881121e-05
 175    0.00077016873050388
 176    0.00072421277987545
 177     -0.00130151407741
 178    0.00052275038074921
 179    0.00075972469815782
 180    0.0035861929530149
 181    -0.0011188531416925
 182    -0.0019301467047409
 183    0.0001729823965777
 184    -0.0015518399249566
 185    -0.0013597532020271
 186    -3.0521454581756e-05
 187    0.00010825527098188
 188    -2.9196522231613e-05
 189    -0.00011576336846214
 190    0.00023806498566324
 Sym= A
 Ene=               3
 Spin= Alpha
 Occup=    1.00000
   1    -0.00061592866962872
   2    -0.0024621384451182
   3    0.0069723109361525
   4    -0.011101751346175
   5    0.0066981091022109
   6    -0.0054654420757288
   7    -0.00063680279913842
   8      0.00586050972284
   9     0.011288172067596
  10    -0.00024583592670227
  11    -0.011558363794676
  12    -0.018157959469054
  13    -0.0052089369235038
  14     0.022524761814952
  15    0.0012253125981659
  16    -0.0022315547417415
  17    -0.013905228733124
  18     -0.31491511552764
  19     -0.10319981985777
  20      0.30288736673216
  21     -0.20043436110261
  22      -0.6024762045113
  23     -0.15273440896863
  24    -0.045925729657209
  25       0.1453127733235
  26      -0.1015946020921
  27     -0.28840960773925
  28    -0.00037617287426917
  29    -0.002553573804934
  30    0.0017279574665098
  31    -0.0016952844165674
  32    -0.0032287149190114