[Molden Format]
made by pyscf v[2.4.0]
[Atoms] (AU)
Cr   1   24     1.56143912275337    -2.46507591990239    -1.82404491365355
Cr   2   24    -1.56139565905251     2.46513072196000     1.82399011159594
O   3   8     0.00002078698737     0.00002834589187    -0.00002645616574
N   4   7     5.12832174930954    -1.10581670549011    -0.60767356069801
H   5   1     6.65216855026694    -1.66292686427314    -1.66487895135981
H   6   1     5.63710405218294    -1.59213394419468     1.18765885421890
H   7   1     5.20084187906585     0.81566059741989    -0.65509245834172
N   8   7     1.71230729763415    -0.02251608677419    -4.99594076510539
H   9   1     0.29795878723855     1.27247165241550    -4.90823668593820
H   10   1     1.50271021425414    -0.85583806455427    -6.73026148236459
H   11   1     3.34039895052705     0.99863710888315    -5.18656310846864
N   12   7     1.41057094787259    -4.90763575303059     1.34785282752440
H   13   1     1.64193389675534    -6.79355407945465     0.97314659318890
H   14   1    -0.29048681014202    -4.81040367474334     2.24006056107205
H   15   1     2.72468082571676    -4.56691435331926     2.71738081369757
N   16   7    -2.00544350380280    -3.82433513431467    -3.04041437688297
H   17   1    -2.87205678671934    -5.05516478184926    -1.83221042023780
H   18   1    -2.03637832046193    -4.76397121413665    -4.73247136936628
H   19   1    -3.24475802163669    -2.37551046050250    -3.28123540501917
N   20   7     3.37923471211299    -5.33493873459111    -3.94755661599306
H   21   1     4.17102617885350    -4.76109883042731    -5.61685374703210
H   22   1     2.26176595533881    -6.82326057413281    -4.47610923358166
H   23   1     4.85383336053810    -6.19899521806112    -3.03922195969837
N   24   7    -5.12827828560868     1.10587339727385     0.60762064836653
H   25   1    -5.15408816501799    -0.81544705836782     0.54662784797006
H   26   1    -5.69743166898356     1.68113626520945    -1.14337690194197
H   27   1    -6.63528195761783     1.56841410187914     1.73267665553083
N   28   7    -1.71226383393328     0.02257088883181     4.99588785277390
H   29   1    -1.62991523860311     0.86667375415253     6.73575491620870
H   30   1    -0.22416876152653    -1.19157625647512     4.98456461383551
H   31   1    -3.28782110056328    -1.08746368536834     5.11339858210385
N   32   7     2.00548696750367     3.82438993637228     3.04035957482536
H   33   1     2.05186651577887     4.68410571893416     4.77402266739321
H   34   1     2.83712330958063     5.12208376337235     1.87805706574587
H   35   1     3.26582090902109     2.38241174030942     3.19051154350492
N   36   7    -1.41052748417173     4.90769055508820    -1.34790762958202
H   37   1    -1.75003190025884     6.78104976168840    -0.99229329828299
H   38   1    -2.65834387984003     4.49309409198925    -2.75785496783350
H   39   1     0.32278033988471     4.89894112313146    -2.18344058692784
N   40   7    -3.37919124841212     5.33499353664873     3.94750181393545
H   41   1    -2.26357064378777     6.83195331430581     4.45515784003860
H   42   1    -4.15358022727151     4.76963661305810     5.62761006813313
H   43   1    -4.86681766873998     6.18449345978121     3.04686590187224
[GTO]
1 0
 s    6 1.00
          51528.086349  0.0017695545768669
          7737.2103487   0.013556436258096
           1760.374847   0.067162645785071
          496.87706544    0.23295905918518
          161.46520598    0.47040576982722
          55.466352268    0.35733072606876
 s    3 1.00
          107.54732999   -0.10605255446629
          12.408671897    0.62543981484169
          5.0423628826    0.44878820793655
 s    3 1.00
          8.5461640165   -0.21819012081133
          1.3900441221    0.70422525667731
         0.56066602876    0.42488555412558
 s    1 1.00
        0.071483705972                   1
 s    1 1.00
        0.028250687604                   1
 p    5 1.00
          640.48536096  0.0093555063746755
          150.69711194   0.068993338492216
          47.503755296     0.2634118959318
          16.934120165    0.51034501651775
           6.240968059    0.33195512953954
 p    3 1.00
          3.0885463206    0.32917682676976
          1.1791047769    0.55491385190365
         0.43369774432    0.23818412855984
 p    1 1.00
              0.120675                   1
 d    4 1.00
          27.559479426   0.036950140313562
          7.4687020327    0.18821519783039
          2.4345903574    0.44641244239929
         0.78244754808     0.5681617303244
 d    1 1.00
         0.21995774311                   1
 f    1 1.00
                 1.147                   1

2 0
 s    6 1.00
          51528.086349  0.0017695545768669
          7737.2103487   0.013556436258096
           1760.374847   0.067162645785071
          496.87706544    0.23295905918518
          161.46520598    0.47040576982722
          55.466352268    0.35733072606876
 s    3 1.00
          107.54732999   -0.10605255446629
          12.408671897    0.62543981484169
          5.0423628826    0.44878820793655
 s    3 1.00
          8.5461640165   -0.21819012081133
          1.3900441221    0.70422525667731
         0.56066602876    0.42488555412558
 s    1 1.00
        0.071483705972                   1
 s    1 1.00
        0.028250687604                   1
 p    5 1.00
          640.48536096  0.0093555063746755
          150.69711194   0.068993338492216
          47.503755296     0.2634118959318
          16.934120165    0.51034501651775
           6.240968059    0.33195512953954
 p    3 1.00
          3.0885463206    0.32917682676976
          1.1791047769    0.55491385190365
         0.43369774432    0.23818412855984
 p    1 1.00
              0.120675                   1
 d    4 1.00
          27.559479426   0.036950140313562
          7.4687020327    0.18821519783039
          2.4345903574    0.44641244239929
         0.78244754808     0.5681617303244
 d    1 1.00
         0.21995774311                   1
 f    1 1.00
                 1.147                   1

3 0
 s    5 1.00
          2266.1767785  -0.0053893503921743
          340.87010191   -0.04023472138896
          77.363135167   -0.18008184205526
           21.47964494   -0.46828857657651
          6.6589433124   -0.44692617160187
 s    1 1.00
         0.80975975668                   1
 s    1 1.00
         0.25530772234                   1
 p    3 1.00
          17.721504317   0.062630248763161
           3.863550544    0.33331138482352
          1.0480920883    0.74148638308122
 p    1 1.00
         0.27641544411                   1
 d    1 1.00
                   1.2                   1

4 0
 s    5 1.00
          1712.8415853  -0.0054477995804909
          257.64812677  -0.040627174632423
          58.458245853   -0.18111962250584
          16.198367905   -0.46843975563173
          5.0052600809   -0.44616846289231
 s    1 1.00
         0.58731856571                   1
 s    1 1.00
         0.18764592253                   1
 p    3 1.00
          13.571470233  -0.058848116969522
          2.9257372874   -0.32024624762471
         0.79927750754   -0.75328226520436
 p    1 1.00
         0.21954348034                   1
 d    1 1.00
                     1                   1

5 0
 s    3 1.00
             13.010701   0.033485484812989
             1.9622572    0.23472187088125
            0.44453796    0.81377028525955
 s    1 1.00
            0.12194962                   1
 p    1 1.00
                   0.8                   1

6 0
 s    3 1.00
             13.010701   0.033485484812989
             1.9622572    0.23472187088125
            0.44453796    0.81377028525955
 s    1 1.00
            0.12194962                   1
 p    1 1.00
                   0.8                   1

7 0
 s    3 1.00
             13.010701   0.033485484812989
             1.9622572    0.23472187088125
            0.44453796    0.81377028525955
 s    1 1.00
            0.12194962                   1
 p    1 1.00
                   0.8                   1

8 0
 s    5 1.00
          1712.8415853  -0.0054477995804909
          257.64812677  -0.040627174632423
          58.458245853   -0.18111962250584
          16.198367905   -0.46843975563173
          5.0052600809   -0.44616846289231
 s    1 1.00
         0.58731856571                   1
 s    1 1.00
         0.18764592253                   1
 p    3 1.00
          13.571470233  -0.058848116969522
          2.9257372874   -0.32024624762471
         0.79927750754   -0.75328226520436
 p    1 1.00
         0.21954348034                   1
 d    1 1.00
                     1                   1

9 0
 s    3 1.00
             13.010701   0.033485484812989
             1.9622572    0.23472187088125
            0.44453796    0.81377028525955
 s    1 1.00
            0.12194962                   1
 p    1 1.00
                   0.8                   1

10 0
 s    3 1.00
             13.010701   0.033485484812989
             1.9622572    0.23472187088125
            0.44453796    0.81377028525955
 s    1 1.00
            0.12194962                   1
 p    1 1.00
                   0.8                   1

11 0
 s    3 1.00
             13.010701   0.033485484812989
             1.9622572    0.23472187088125
            0.44453796    0.81377028525955
 s    1 1.00
            0.12194962                   1
 p    1 1.00
                   0.8                   1

12 0
 s    5 1.00
          1712.8415853  -0.0054477995804909
          257.64812677  -0.040627174632423
          58.458245853   -0.18111962250584
          16.198367905   -0.46843975563173
          5.0052600809   -0.44616846289231
 s    1 1.00
         0.58731856571                   1
 s    1 1.00
         0.18764592253                   1
 p    3 1.00
          13.571470233  -0.058848116969522
          2.9257372874   -0.32024624762471
         0.79927750754   -0.75328226520436
 p    1 1.00
         0.21954348034                   1
 d    1 1.00
                     1                   1

13 0
 s    3 1.00
             13.010701   0.033485484812989
             1.9622572    0.23472187088125
            0.44453796    0.81377028525955
 s    1 1.00
            0.12194962                   1
 p    1 1.00
                   0.8                   1

14 0
 s    3 1.00
             13.010701   0.033485484812989
             1.9622572    0.23472187088125
            0.44453796    0.81377028525955
 s    1 1.00
            0.12194962                   1
 p    1 1.00
                   0.8                   1

15 0
 s    3 1.00
             13.010701   0.033485484812989
             1.9622572    0.23472187088125
            0.44453796    0.81377028525955
 s    1 1.00
            0.12194962                   1
 p    1 1.00
                   0.8                   1

16 0
 s    5 1.00
          1712.8415853  -0.0054477995804909
          257.64812677  -0.040627174632423
          58.458245853   -0.18111962250584
          16.198367905   -0.46843975563173
          5.0052600809   -0.44616846289231
 s    1 1.00
         0.58731856571                   1
 s    1 1.00
         0.18764592253                   1
 p    3 1.00
          13.571470233  -0.058848116969522
          2.9257372874   -0.32024624762471
         0.79927750754   -0.75328226520436
 p    1 1.00
         0.21954348034                   1
 d    1 1.00
                     1                   1

17 0
 s    3 1.00
             13.010701   0.033485484812989
             1.9622572    0.23472187088125
            0.44453796    0.81377028525955
 s    1 1.00
            0.12194962                   1
 p    1 1.00
                   0.8                   1

18 0
 s    3 1.00
             13.010701   0.033485484812989
             1.9622572    0.23472187088125
            0.44453796    0.81377028525955
 s    1 1.00
            0.12194962                   1
 p    1 1.00
                   0.8                   1

19 0
 s    3 1.00
             13.010701   0.033485484812989
             1.9622572    0.23472187088125
            0.44453796    0.81377028525955
 s    1 1.00
            0.12194962                   1
 p    1 1.00
                   0.8                   1

20 0
 s    5 1.00
          1712.8415853  -0.0054477995804909
          257.64812677  -0.040627174632423
          58.458245853   -0.18111962250584
          16.198367905   -0.46843975563173
          5.0052600809   -0.44616846289231
 s    1 1.00
         0.58731856571                   1
 s    1 1.00
         0.18764592253                   1
 p    3 1.00
          13.571470233  -0.058848116969522
          2.9257372874   -0.32024624762471
         0.79927750754   -0.75328226520436
 p    1 1.00
         0.21954348034                   1
 d    1 1.00
                     1                   1

21 0
 s    3 1.00
             13.010701   0.033485484812989
             1.9622572    0.23472187088125
            0.44453796    0.81377028525955
 s    1 1.00
            0.12194962                   1
 p    1 1.00
                   0.8                   1

22 0
 s    3 1.00
             13.010701   0.033485484812989
             1.9622572    0.23472187088125
            0.44453796    0.81377028525955
 s    1 1.00
            0.12194962                   1
 p    1 1.00
                   0.8                   1

23 0
 s    3 1.00
             13.010701   0.033485484812989
             1.9622572    0.23472187088125
            0.44453796    0.81377028525955
 s    1 1.00
            0.12194962                   1
 p    1 1.00
                   0.8                   1

24 0
 s    5 1.00
          1712.8415853  -0.0054477995804909
          257.64812677  -0.040627174632423
          58.458245853   -0.18111962250584
          16.198367905   -0.46843975563173
          5.0052600809   -0.44616846289231
 s    1 1.00
         0.58731856571                   1
 s    1 1.00
         0.18764592253                   1
 p    3 1.00
          13.571470233  -0.058848116969522
          2.9257372874   -0.32024624762471
         0.79927750754   -0.75328226520436
 p    1 1.00
         0.21954348034                   1
 d    1 1.00
                     1                   1

25 0
 s    3 1.00
             13.010701   0.033485484812989
             1.9622572    0.23472187088125
            0.44453796    0.81377028525955
 s    1 1.00
            0.12194962                   1
 p    1 1.00
                   0.8                   1

26 0
 s    3 1.00
             13.010701   0.033485484812989
             1.9622572    0.23472187088125
            0.44453796    0.81377028525955
 s    1 1.00
            0.12194962                   1
 p    1 1.00
                   0.8                   1

27 0
 s    3 1.00
             13.010701   0.033485484812989
             1.9622572    0.23472187088125
            0.44453796    0.81377028525955
 s    1 1.00
            0.12194962                   1
 p    1 1.00
                   0.8                   1

28 0
 s    5 1.00
          1712.8415853  -0.0054477995804909
          257.64812677  -0.040627174632423
          58.458245853   -0.18111962250584
          16.198367905   -0.46843975563173
          5.0052600809   -0.44616846289231
 s    1 1.00
         0.58731856571                   1
 s    1 1.00
         0.18764592253                   1
 p    3 1.00
          13.571470233  -0.058848116969522
          2.9257372874   -0.32024624762471
         0.79927750754   -0.75328226520436
 p    1 1.00
         0.21954348034                   1
 d    1 1.00
                     1                   1

29 0
 s    3 1.00
             13.010701   0.033485484812989
             1.9622572    0.23472187088125
            0.44453796    0.81377028525955
 s    1 1.00
            0.12194962                   1
 p    1 1.00
                   0.8                   1

30 0
 s    3 1.00
             13.010701   0.033485484812989
             1.9622572    0.23472187088125
            0.44453796    0.81377028525955
 s    1 1.00
            0.12194962                   1
 p    1 1.00
                   0.8                   1

31 0
 s    3 1.00
             13.010701   0.033485484812989
             1.9622572    0.23472187088125
            0.44453796    0.81377028525955
 s    1 1.00
            0.12194962                   1
 p    1 1.00
                   0.8                   1

32 0
 s    5 1.00
          1712.8415853  -0.0054477995804909
          257.64812677  -0.040627174632423
          58.458245853   -0.18111962250584
          16.198367905   -0.46843975563173
          5.0052600809   -0.44616846289231
 s    1 1.00
         0.58731856571                   1
 s    1 1.00
         0.18764592253                   1
 p    3 1.00
          13.571470233  -0.058848116969522
          2.9257372874   -0.32024624762471
         0.79927750754   -0.75328226520436
 p    1 1.00
         0.21954348034                   1
 d    1 1.00
                     1                   1

33 0
 s    3 1.00
             13.010701   0.033485484812989
             1.9622572    0.23472187088125
            0.44453796    0.81377028525955
 s    1 1.00
            0.12194962                   1
 p    1 1.00
                   0.8                   1

34 0
 s    3 1.00
             13.010701   0.033485484812989
             1.9622572    0.23472187088125
            0.44453796    0.81377028525955
 s    1 1.00
            0.12194962                   1
 p    1 1.00
                   0.8                   1

35 0
 s    3 1.00
             13.010701   0.033485484812989
             1.9622572    0.23472187088125
            0.44453796    0.81377028525955
 s    1 1.00
            0.12194962                   1
 p    1 1.00
                   0.8                   1

36 0
 s    5 1.00
          1712.8415853  -0.0054477995804909
          257.64812677  -0.040627174632423
          58.458245853   -0.18111962250584
          16.198367905   -0.46843975563173
          5.0052600809   -0.44616846289231
 s    1 1.00
         0.58731856571                   1
 s    1 1.00
         0.18764592253                   1
 p    3 1.00
          13.571470233  -0.058848116969522
          2.9257372874   -0.32024624762471
         0.79927750754   -0.75328226520436
 p    1 1.00
         0.21954348034                   1
 d    1 1.00
                     1                   1

37 0
 s    3 1.00
             13.010701   0.033485484812989
             1.9622572    0.23472187088125
            0.44453796    0.81377028525955
 s    1 1.00
            0.12194962                   1
 p    1 1.00
                   0.8                   1

38 0
 s    3 1.00
             13.010701   0.033485484812989
             1.9622572    0.23472187088125
            0.44453796    0.81377028525955
 s    1 1.00
            0.12194962                   1
 p    1 1.00
                   0.8                   1

39 0
 s    3 1.00
             13.010701   0.033485484812989
             1.9622572    0.23472187088125
            0.44453796    0.81377028525955
 s    1 1.00
            0.12194962                   1
 p    1 1.00
                   0.8                   1

40 0
 s    5 1.00
          1712.8415853  -0.0054477995804909
          257.64812677  -0.040627174632423
          58.458245853   -0.18111962250584
          16.198367905   -0.46843975563173
          5.0052600809   -0.44616846289231
 s    1 1.00
         0.58731856571                   1
 s    1 1.00
         0.18764592253                   1
 p    3 1.00
          13.571470233  -0.058848116969522
          2.9257372874   -0.32024624762471
         0.79927750754   -0.75328226520436
 p    1 1.00
         0.21954348034                   1
 d    1 1.00
                     1                   1

41 0
 s    3 1.00
             13.010701   0.033485484812989
             1.9622572    0.23472187088125
            0.44453796    0.81377028525955
 s    1 1.00
            0.12194962                   1
 p    1 1.00
                   0.8                   1

42 0
 s    3 1.00
             13.010701   0.033485484812989
             1.9622572    0.23472187088125
            0.44453796    0.81377028525955
 s    1 1.00
            0.12194962                   1
 p    1 1.00
                   0.8                   1

43 0
 s    3 1.00
             13.010701   0.033485484812989
             1.9622572    0.23472187088125
            0.44453796    0.81377028525955
 s    1 1.00
            0.12194962                   1
 p    1 1.00
                   0.8                   1

[5d]
[7f]
[9g]

[MO]
 Sym= A
 Ene=               0
 Spin= Alpha
 Occup=    1.00000
   1    -0.00015511995036749
   2    0.00030652109136143
   3    -0.0028582547540288
   4    0.00020469790994455
   5    0.00039217897497411
   6    -0.00072796161184661
   7    0.00014999491589756
   8    0.00025481259187906
   9    0.0034089170549345
  10    -0.001024854605041
  11    -0.0014318742661703
  12    0.0009138491833566
  13    0.0014928201887146
  14    -0.0002551790828091
  15     0.072744591260542
  16    -0.046854866982454
  17    -0.092530004442942
  18    -0.081400807701006
  19    -0.043169781840832
  20     0.059600876898889
  21    -0.038275184320063
  22    -0.075984738136627
  23    -0.066366977442295
  24     -0.03518394677326
  25    -0.00045618159848376
  26    0.00031285003388425
  27    0.00016366953039751
  28    -0.00018656809419511
  29    6.4501460176302e-05
  30    -0.00034633055203278
  31    0.00024675267865013
  32    0.00011516646965636
  33    -0.00024834000917566
  34    0.0021148766890544
  35    -0.00034574330062325
  36    8.6521387564548e-05
  37    -0.00075869943626854
  38    8.5773101624003e-05
  39    0.00027539583330542
  40    0.0035094429625532
  41    -0.00080221861566531
  42    -0.0015007246781327
  43    0.00080085766702148
  44    0.00073186731075922
  45    -8.9411671079169e-05
  46    -0.00039712500107846
  47    0.00051311638130173
  48    0.0003602628798859
  49    0.0004925038006701
  50    0.00055530452557848
  51    -0.00081554414393925
  52    0.00068959772747393
  53    0.0010467270898995
  54    0.00081595755129087
  55    0.00064137041941241
  56    -6.0343784021725e-05
  57    9.1245067251793e-06
  58    2.2301370928219e-05
  59    -1.4346990548483e-06
  60    -4.4844052317994e-06
  61    -9.8340499991622e-06
  62    4.8857463742391e-05
  63    -0.0010530563078793
  64    -0.0013255996638735
  65    -0.00072364975772382
  66    7.2161853642884e-05
  67    -5.6702873550953e-05
  68    -7.2917531635065e-05
  69    -1.4226763236685e-06
  70    -0.00047559230008966
  71    -0.00019797868959269
  72    0.00026695923873718
  73    -0.00015766349974016
  74    -0.00035838200989963
  75    -0.00029259507924774
  76    -0.00014098822791189
  77    -0.032285870416797
  78     -0.24188500102228
  79     -0.13773708570845
  80     -0.13001034702367
  81    -0.049007464256033
  82    -0.045195542989805
  83     0.099840354350333
  84     0.043101261505885
  85     0.036290447906998
  86    0.00019901210766549
  87    -0.00014004631695645
  88    -0.00028007791700225
  89    0.00019330265804551
  90    -0.00011919902632552
  91    -0.029398792846957
  92     0.009030730801732
  93    0.0080792435189089
  94    0.00012839313203083
  95    -0.0013290646743555
  96    -0.029364351045188
  97     0.010099839442981
  98    0.0055962479573506
  99    -0.00043420786052264
 100    0.0062370915249785
 101    -0.039527094972691
 102    0.0099468125422896
 103    0.0043749687151315
 104    0.0078757259701806
 105    0.00063778670382182
 106     0.033384630564012
 107      0.24768625559128
 108      0.14101508040274
 109    0.0064389071916973
 110     0.092123579535432
 111     -0.11751066140812
 112    -0.00019326767265246
 113    -0.076002484354133
 114     0.088853918278503
 115    -7.2034609918495e-05
 116    -8.2972283828923e-05
 117    -0.00016890873489963
 118    -0.00020384872426896
 119    -0.0003610864274226
 120     0.042631437141881
 121    -0.010070828442592
 122    0.0049958087283974
 123    -0.0070646173064739
 124    0.0035116955634671
 125     0.030068856918894
 126    -0.0097255909174819
 127    0.00032936651743254
 128    -0.00063193936036715
 129    0.0083324832898115
 130     0.029313584585282
 131    -0.010538501579356
 132    -0.0049730349884262
 133    -0.0052368984473537
 134    0.0043069208749334
 135     0.032914849088609
 136      0.24627752645501
 137      0.14026730236452
 138    -0.0051020634967006
 139    -0.089299190718041
 140      0.11838769480477
 141    0.0077747792447801
 142     0.067451277962426
 143    -0.094736471518963
 144    0.00019743076875271
 145    -0.0003149045319211
 146    -5.736505703615e-05
 147    2.0946446327981e-05
 148    -0.00010998422404654
 149     0.030932295972831
 150    -0.0091078998775139
 151    -0.00044781545429564
 152    0.0079282618485983
 153    -0.0027169314503909
 154     0.039268648785879
 155    -0.010316867057313
 156    0.0060595293536077
 157    0.0028288749587227
 158    -0.0062253395186078
 159     0.030166563667603
 160    -0.010386928537948
 161    -0.0040637496006836
 162    0.0020697504953243
 163    -0.0072449612143274
 164     -0.03370269457043
 165     -0.24601946314845
 166     -0.14078345757009
 167      0.13373433234258
 168     0.050707286732284
 169     0.042648651704216
 170     -0.10704642802684
 171    -0.034425563697585
 172    -0.032346323235683
 173    0.00029396073078195
 174    -7.6365204564536e-05
 175    -0.00014437689145095
 176    -0.00021026304495539
 177    0.00020345758421811
 178    -0.029010806035759
 179     0.010715235247872
 180    -0.0061270450441253
 181    -0.005372315996811
 182    0.0018572934187513
 183    -0.030435658088083
 184    0.0091760909704514
 185    -0.0043402149757832
 186    -0.0041105078517938
 187    -0.0058982930062013
 188    -0.040800852758527
 189      0.01017337277851
 190    -0.0081207529530421
 191    0.0034003338203633
 192    -0.0026158690612449
 193    -0.00042229327598368
 194    -0.0034709665587801
 195    -0.0020331864477529
 196    -0.0055894823825328
 197    -0.0030005951822075
 198    0.0030822963740771
 199    0.0018693619355629
 200    -0.00045862673174123
 201    -0.00089030951807278
 202    0.00046743044594059
 203    -0.00034828375956402
 204    -0.00050889064679795
 205    -0.0002327349017656
 206    -0.00029024330800922
 207      0.00567510206608
 208    0.0023399083003056
 209    -0.0004405122571215
 210    0.00052767244458656
 211    0.00027613502971623
 212    -0.0068961467828281
 213    -0.0020902126662425
 214    0.00035844706786863
 215    -0.00085199235866205
 216    -0.0002498904016934
 217    -0.00016536716317537
 218    4.8485304242965e-05
 219    -0.00018919636669573
 220    -0.00034778292501928
 221    9.4577378245067e-05
 222    -0.0015078468247547
 223    -0.0023048608705666
 224    -0.0023267816036927
 225    0.00089668284757641
 226    -0.0019000724251963
 227    -0.0006691450200147
 228    -0.0022131857586547
 229    0.0011734738607307
 230    0.0012662108608993
 231    9.0691305726147e-06
 232    -0.00010880693171474
 233    3.3443782395386e-05
 234    0.00012440400899354
 235    -5.7414180372297e-05
 236    -0.0021395816983491
 237    -0.0011952002250275
 238    -0.00015970447181444
 239    -0.00025619808786658
 240    6.2437473337847e-05
 241    -0.00046799201068098
 242    0.00059719830148445
 243    0.00010729486599364
 244    4.5218233469678e-05
 245    -5.2927107573507e-05
 246    7.0282934651692e-05
 247    -8.9698539783804e-05
 248    -7.2880885612164e-05
 249    7.8316448690493e-05
 250    0.00010695756180325
 251    0.00061152321856732
 252    -0.00091405558386876
 253    -0.00017015935094061
 254    -0.0024452151330018
 255    0.0033995737809003
 256    0.00021075153830785
 257    0.0012681419413749
 258    -0.0022833238623039
 259    -0.0016569072700507
 260    -0.00017326095562676
 261    1.9129693766065e-05
 262    -0.00011906768378486
 263    2.5457435710217e-05
 264    -0.00011251541592954
 265    -0.0011561810071668
 266    -0.00014836495156835
 267    4.2880250284862e-05
 268    -0.00011385339920667
 269    8.7204675435082e-05
 270    0.0028372438412587
 271    0.0021841795839784
 272    -0.00019267435010492
 273    0.00011646631204433
 274    -0.00022841010496363
 275    -0.00046737490628319
 276    -7.2765978471148e-05
 277    3.3034806670054e-06
 278    -9.5585848046328e-05
 279    0.00015614534197288
 280    -6.7056272859018e-05
 281    0.0018121137382293
 282    0.0012657967165014
 283    0.0046270542825383
 284    -0.0020306182709593
 285    -0.00046492602407327
 286    -0.0026172173317104
 287    0.0016564867764454
 288    0.0014967719293865
 289    0.00015627883359607
 290    -1.1683179827586e-06
 291    0.00013612705064965
 292    -4.1391644182688e-05
 293    0.00011542504452799
 294    0.0012195816797352
 295    0.00011711799072853
 296    -0.00018406804369089
 297    -1.0666261247292e-05
 298    -4.7019571567452e-05
 299    7.0939894815681e-05
 300    -6.8044363637342e-05
 301    -0.0001693359207538
 302    -3.7103718034749e-05
 303    -0.00010351895124613
 304    -0.0028805773317733
 305    -0.0023973876579542
 306    0.00019723344565513
 307    -0.0001122822339473
 308    0.00021533017055378
 309    0.0010807082939728
 310    0.00028474940757265
 311    0.0018970655745069
 312    -0.0021821582013791
 313    0.0016265134780763
 314    0.0019476843881115
 315    0.0013450740132508
 316    -0.0027604400079784
 317    -0.0014312771987734
 318    7.7554100541901e-05
 319    -2.0661952437211e-05
 320    -2.0306470712769e-05
 321    0.00020187562908553
 322    6.1093166536185e-05
 323    -0.0013881376716873
 324    3.4551795805998e-05
 325    5.0458657115836e-05
 326    4.279879096207e-05
 327    -7.9145507585853e-05
 328    0.0003035247422708
 329    -0.00068943444087517
 330    1.9983039515529e-05
 331    4.7670359416897e-05
 332    -0.0001198626020888
 333    0.0022201790730526
 334    0.00086194480957989
 335    -0.00019966554518275
 336    -0.00012158776828263
 337    8.8439649052638e-05
 338    -0.00015565242585083
 339    -0.00050941038388225