[Molden Format]
made by pyscf v[2.4.0]
[Atoms] (AU)
Fe   1   26     3.17068844873907     0.00098706064664     0.12237737881307
O   2   8     0.00000000000000     0.00000000000000    -0.89004350580623
Fe   3   26    -3.17068844873907    -0.00098706064664     0.12237737881307
Cl   4   17     3.53383895113107    -2.07485195383062     3.76228752659000
Cl   5   17     5.54152580550813    -1.85590924879884    -2.78672786652360
Cl   6   17     4.48169216485503     3.92976278472880    -0.95330240907949
Cl   7   17    -3.53383895113107     2.07485195383062     3.76228752659000
Cl   8   17    -5.54152580550813     1.85590924879884    -2.78672786652360
Cl   9   17    -4.48169216485503    -3.92976278472880    -0.95330240907949
[GTO]
1 0
 s    6 1.00
              61132.62  0.0017661109761772
              9179.342   0.013530379817491
              2090.857   0.066731279099873
              589.2479    0.23148229687757
              188.7543    0.47970579352933
              64.44629    0.35019759527624
 s    6 1.00
               1259.98   0.002438014026839
              299.8761   0.032240480354921
              96.84917    0.12657240139338
               36.3102  -0.031399020345658
              14.72996   -0.62075930683366
              6.066075   -0.45029140495706
 s    6 1.00
              50.43485  -0.0038732559842369
              16.83929   0.071965979707118
              7.192086    0.25565909895954
               3.05342   -0.28828369882676
              1.273643   -0.73428219701167
              0.504091   -0.20493529916597
 s    3 1.00
              1.950316   0.056948690305124
              0.736721    0.28829150154463
              0.114177    -1.1381590060981
 s    1 1.00
              0.041148                   1
 p    6 1.00
               1259.98  0.0040280186654072
              299.8761   0.031446467387857
              96.84917    0.13683168863389
               36.3102    0.34872357103281
              14.72996    0.46179306164054
              6.066075    0.20430578302906
 p    6 1.00
              50.43485  -0.0070171278804837
              16.83929  -0.028776599509875
              7.192086   0.061813828947182
               3.05342     0.3954945932639
              1.273643    0.49890589150259
              0.504091    0.17912509694913
 p    3 1.00
              1.950316   -0.45937961634956
              0.736721    0.28521391015091
              0.114177    0.90764853230368
 p    1 1.00
              0.041148                   1
 d    3 1.00
              23.14994   0.088769354792419
              6.122368    0.38963192103518
              1.846601    0.70148163787111
 d    1 1.00
              0.504361                   1
 f    1 1.00
                   0.8                   1

2 0
 s    6 1.00
             5484.6717   0.001831099805527
             825.23495   0.013950098518422
             188.04696    0.06844509273075
               52.9645    0.23271427528445
              16.89757    0.47019295006289
             5.7996353    0.35852086192309
 s    3 1.00
             15.539616   -0.11077750382508
             3.5999336   -0.14802630511126
             1.0137618     1.1307670390447
 s    1 1.00
             0.2700058                   1
 p    3 1.00
             15.539616   0.070874299543311
             3.5999336    0.33975279781076
             1.0137618    0.72715859531445
 p    1 1.00
             0.2700058                   1
 d    1 1.00
                   0.8                   1

3 0
 s    6 1.00
              61132.62  0.0017661109761772
              9179.342   0.013530379817491
              2090.857   0.066731279099873
              589.2479    0.23148229687757
              188.7543    0.47970579352933
              64.44629    0.35019759527624
 s    6 1.00
               1259.98   0.002438014026839
              299.8761   0.032240480354921
              96.84917    0.12657240139338
               36.3102  -0.031399020345658
              14.72996   -0.62075930683366
              6.066075   -0.45029140495706
 s    6 1.00
              50.43485  -0.0038732559842369
              16.83929   0.071965979707118
              7.192086    0.25565909895954
               3.05342   -0.28828369882676
              1.273643   -0.73428219701167
              0.504091   -0.20493529916597
 s    3 1.00
              1.950316   0.056948690305124
              0.736721    0.28829150154463
              0.114177    -1.1381590060981
 s    1 1.00
              0.041148                   1
 p    6 1.00
               1259.98  0.0040280186654072
              299.8761   0.031446467387857
              96.84917    0.13683168863389
               36.3102    0.34872357103281
              14.72996    0.46179306164054
              6.066075    0.20430578302906
 p    6 1.00
              50.43485  -0.0070171278804837
              16.83929  -0.028776599509875
              7.192086   0.061813828947182
               3.05342     0.3954945932639
              1.273643    0.49890589150259
              0.504091    0.17912509694913
 p    3 1.00
              1.950316   -0.45937961634956
              0.736721    0.28521391015091
              0.114177    0.90764853230368
 p    1 1.00
              0.041148                   1
 d    3 1.00
              23.14994   0.088769354792419
              6.122368    0.38963192103518
              1.846601    0.70148163787111
 d    1 1.00
              0.504361                   1
 f    1 1.00
                   0.8                   1

4 0
 s    6 1.00
               25180.1  0.0018330003117875
               3780.35   0.014034002387139
               860.474   0.069097011753181
               242.145    0.23745204038983
               77.3349    0.48303408216255
                26.247    0.33985605780843
 s    6 1.00
               491.765  -0.0022974019889149
               116.984  -0.030714026589855
               37.4153   -0.11252809741822
               13.7834   0.045016038971443
               5.45215    0.58935351021719
               2.22588    0.46520640274012
 s    3 1.00
               3.18649    -0.2518312880459
               1.14427   0.061589315011948
              0.420377     1.0601854225489
 s    1 1.00
              0.142657                   1
 p    6 1.00
               491.765  0.0039894005477754
               116.984   0.030318004162896
               37.4153    0.12988001783353
               13.7834     0.3279510450302
               5.45215    0.45352706227276
               2.22588    0.25215403462269
 p    3 1.00
               3.18649   -0.01429901271425
               1.14427    0.32357228771069
              0.420377    0.74350766110453
 p    1 1.00
              0.142657                   1
 d    1 1.00
                  0.75                   1

5 0
 s    6 1.00
               25180.1  0.0018330003117875
               3780.35   0.014034002387139
               860.474   0.069097011753181
               242.145    0.23745204038983
               77.3349    0.48303408216255
                26.247    0.33985605780843
 s    6 1.00
               491.765  -0.0022974019889149
               116.984  -0.030714026589855
               37.4153   -0.11252809741822
               13.7834   0.045016038971443
               5.45215    0.58935351021719
               2.22588    0.46520640274012
 s    3 1.00
               3.18649    -0.2518312880459
               1.14427   0.061589315011948
              0.420377     1.0601854225489
 s    1 1.00
              0.142657                   1
 p    6 1.00
               491.765  0.0039894005477754
               116.984   0.030318004162896
               37.4153    0.12988001783353
               13.7834     0.3279510450302
               5.45215    0.45352706227276
               2.22588    0.25215403462269
 p    3 1.00
               3.18649   -0.01429901271425
               1.14427    0.32357228771069
              0.420377    0.74350766110453
 p    1 1.00
              0.142657                   1
 d    1 1.00
                  0.75                   1

6 0
 s    6 1.00
               25180.1  0.0018330003117875
               3780.35   0.014034002387139
               860.474   0.069097011753181
               242.145    0.23745204038983
               77.3349    0.48303408216255
                26.247    0.33985605780843
 s    6 1.00
               491.765  -0.0022974019889149
               116.984  -0.030714026589855
               37.4153   -0.11252809741822
               13.7834   0.045016038971443
               5.45215    0.58935351021719
               2.22588    0.46520640274012
 s    3 1.00
               3.18649    -0.2518312880459
               1.14427   0.061589315011948
              0.420377     1.0601854225489
 s    1 1.00
              0.142657                   1
 p    6 1.00
               491.765  0.0039894005477754
               116.984   0.030318004162896
               37.4153    0.12988001783353
               13.7834     0.3279510450302
               5.45215    0.45352706227276
               2.22588    0.25215403462269
 p    3 1.00
               3.18649   -0.01429901271425
               1.14427    0.32357228771069
              0.420377    0.74350766110453
 p    1 1.00
              0.142657                   1
 d    1 1.00
                  0.75                   1

7 0
 s    6 1.00
               25180.1  0.0018330003117875
               3780.35   0.014034002387139
               860.474   0.069097011753181
               242.145    0.23745204038983
               77.3349    0.48303408216255
                26.247    0.33985605780843
 s    6 1.00
               491.765  -0.0022974019889149
               116.984  -0.030714026589855
               37.4153   -0.11252809741822
               13.7834   0.045016038971443
               5.45215    0.58935351021719
               2.22588    0.46520640274012
 s    3 1.00
               3.18649    -0.2518312880459
               1.14427   0.061589315011948
              0.420377     1.0601854225489
 s    1 1.00
              0.142657                   1
 p    6 1.00
               491.765  0.0039894005477754
               116.984   0.030318004162896
               37.4153    0.12988001783353
               13.7834     0.3279510450302
               5.45215    0.45352706227276
               2.22588    0.25215403462269
 p    3 1.00
               3.18649   -0.01429901271425
               1.14427    0.32357228771069
              0.420377    0.74350766110453
 p    1 1.00
              0.142657                   1
 d    1 1.00
                  0.75                   1

8 0
 s    6 1.00
               25180.1  0.0018330003117875
               3780.35   0.014034002387139
               860.474   0.069097011753181
               242.145    0.23745204038983
               77.3349    0.48303408216255
                26.247    0.33985605780843
 s    6 1.00
               491.765  -0.0022974019889149
               116.984  -0.030714026589855
               37.4153   -0.11252809741822
               13.7834   0.045016038971443
               5.45215    0.58935351021719
               2.22588    0.46520640274012
 s    3 1.00
               3.18649    -0.2518312880459
               1.14427   0.061589315011948
              0.420377     1.0601854225489
 s    1 1.00
              0.142657                   1
 p    6 1.00
               491.765  0.0039894005477754
               116.984   0.030318004162896
               37.4153    0.12988001783353
               13.7834     0.3279510450302
               5.45215    0.45352706227276
               2.22588    0.25215403462269
 p    3 1.00
               3.18649   -0.01429901271425
               1.14427    0.32357228771069
              0.420377    0.74350766110453
 p    1 1.00
              0.142657                   1
 d    1 1.00
                  0.75                   1

9 0
 s    6 1.00
               25180.1  0.0018330003117875
               3780.35   0.014034002387139
               860.474   0.069097011753181
               242.145    0.23745204038983
               77.3349    0.48303408216255
                26.247    0.33985605780843
 s    6 1.00
               491.765  -0.0022974019889149
               116.984  -0.030714026589855
               37.4153   -0.11252809741822
               13.7834   0.045016038971443
               5.45215    0.58935351021719
               2.22588    0.46520640274012
 s    3 1.00
               3.18649    -0.2518312880459
               1.14427   0.061589315011948
              0.420377     1.0601854225489
 s    1 1.00
              0.142657                   1
 p    6 1.00
               491.765  0.0039894005477754
               116.984   0.030318004162896
               37.4153    0.12988001783353
               13.7834     0.3279510450302
               5.45215    0.45352706227276
               2.22588    0.25215403462269
 p    3 1.00
               3.18649   -0.01429901271425
               1.14427    0.32357228771069
              0.420377    0.74350766110453
 p    1 1.00
              0.142657                   1
 d    1 1.00
                  0.75                   1

[5d]
[7f]
[9g]

[MO]
 Sym= A
 Ene=               0
 Spin= Alpha
 Occup=    1.00000
   1    -0.0012685191783392
   2    -0.0055322427873212
   3      0.01366191110272
   4    -0.032224868161673
   5    0.0030473867450851
   6    -0.0023027282222895
   7    -0.0017836385858365
   8    0.0065067587470476
   9    0.0049339153504392
  10    0.0033058522027277
  11    -0.011308066035394
  12    -0.0073288699713894
  13    -0.0073329925764271
  14     0.027593450534285
  15    -0.00040433297816399
  16     0.005522830801772
  17    -0.0095604558143828
  18       -0.221294822732
  19      0.34174846941985
  20      0.49636108338901
  21     -0.39823343507054
  22     -0.17974099553953
  23     -0.10796300471763
  24      0.16774850985565
  25      0.24345501547655
  26     -0.19611807241616
  27    -0.088631316121345
  28    -0.0018028609098297
  29     0.001746731865836
  30    0.0018815584821201
  31    -0.00019232463151772
  32    0.00096922623998286
  33    -0.0019191999633743
  34    -0.00038269937108871
  35    -0.00010156982622887
  36    -0.0003800560663431
  37    -0.0017478373220008
  38    0.00047548104877752
  39    -0.00054007053681371
  40     0.037708904418547
  41    0.0010214047354111
  42    7.1758334274637e-05
  43     0.032183980705693
  44    6.5922873394546e-05
  45    -0.00015898118413071
  46    0.0010098711352582
  47    -0.00014277506117381
  48    -0.00027513128976451
  49    -0.00018554925512282
  50    -0.00091548878605804
  51    0.0017424765167115
  52    -0.0061726878144701
  53    -0.0096449399166049
  54    0.0012590413430093
  55    -1.5720640962457e-05
  56    0.00069201650830703
  57    -0.0028994173467484
  58    0.00026014617218459
  59    -0.0012677107175466
  60    0.0036033963240982
  61    0.00056496313949852
  62    0.0028023997710438
  63    -0.0043740241706402
  64    -0.0015221673089192
  65    0.0058597256277765
  66    -0.00083571810606315
  67    0.0008135665142677
  68    -0.00018048842473187
  69    0.00083752496743743
  70    -0.00015730989280317
  71    -0.0015981601997026
  72    0.0017083195213325
  73    -0.00041619202226374
  74     0.001459284370651
  75    -0.00026392071683478
  76    -0.00020156276048609
  77    -0.00079622076134448
  78    -9.5125626529905e-05
  79    0.00033822620977974
  80    -1.1566331029842e-06
  81    0.00046888790744065
  82    -5.0330694956203e-05
  83    0.0018269777228649
  84    -0.0092964686993894
  85     0.014105178493298
  86    0.0089183056791056
  87     0.014901596986365
  88    -0.011336368224857
  89     0.016527223921943
  90    -0.038499948907518
  91     0.028785747136938
  92    -0.041770131689438
  93    -0.023722770997281
  94     0.019234958794595
  95    -0.030133519360618
  96    0.00030183559942434
  97    -0.0029971743804799
  98    0.0012060011750591
  99    -0.00075741835757565
 100    0.0018947227371506
 101    -0.00043438397358654
 102    0.0023596534623525
 103    -0.0028231184671032
 104    -0.0056199668208143
 105    -0.014527819081468
 106     -0.02379307240226
 107     0.011012082030766
 108     0.037427332346305
 109     0.061762354110161
 110    -0.028424559847475
 111     0.024659760263324
 112     0.037835646278141
 113    -0.019547884869943
 114    0.0014620904934503
 115    -0.0023790724731419
 116    -0.0035843494331173
 117    0.0041493686557882
 118    0.0026161441340131
 119    -0.00048036735306948
 120    0.0026516655237149
 121    -0.0029576351309214
 122    -0.0085948052205696
 123    -0.012495616337914
 124    0.0042854164684545
 125     0.025004649546678
 126     0.032272452024184
 127    -0.011201630985552
 128    -0.064751136260584
 129     0.020740896025931
 130    -0.0047278470019967
 131    -0.041158341248706
 132    0.0023217224955337
 133    -0.002313889619552
 134    -0.0036760762383742
 135    0.0033495271812292
 136    0.0013818929604954
 137    -0.00019767966614185
 138    0.00072997242324709
 139    -0.0026192331730032
 140    -0.00029181618445571
 141    0.0015496497299561
 142    -0.00054620053885397
 143    -0.00058001958445028
 144    -0.0042149464863784
 145    0.0015107795973344
 146    0.0017485407871195
 147    -0.0016357499822762
 148    0.0013504223737217
 149    0.00059373117771747
 150    -9.3167465606548e-05
 151    -0.00017597414765608
 152    4.2180915648562e-05
 153    0.00011307138158591
 154    -0.00016141211489404
 155     4.57500166303e-05
 156    -0.00029615705650978
 157    0.00015956877329627
 158    0.0035944574462536
 159    -0.00075872779273919
 160    -2.1690849896105e-05
 161    0.00065126249469503
 162    0.0020480606066898
 163    -6.6264312643629e-05
 164    -0.0015160547892555
 165    0.0015689643596768
 166    9.0514973876324e-05
 167    -0.0016316037800733
 168    -1.8381145845228e-06
 169    -1.3529859113846e-05
 170    6.3619421014213e-05
 171    -7.2496013589415e-05
 172    6.459488162569e-05
 173    -3.3422054294589e-05
 174    -2.8392308575795e-05
 175    -0.0010017962153986
 176     0.002795616954058
 177    0.00011743106304677
 178    4.8354548015396e-05
 179    0.00068999354949187
 180    -0.0004951432739434
 181    -0.00019846777911965
 182    -0.0017893022695275
 183    0.00095119058604664
 184    0.00078457361673709
 185     -0.00168094064226
 186    1.5332496603138e-05
 187    9.6326201226962e-05
 188    3.987431752481e-05
 189    1.4935073242838e-05
 190    2.4428981004554e-05
 Sym= A
 Ene=               1
 Spin= Alpha
 Occup=    1.00000
   1    0.00069796672300685
   2    0.0031743794164199
   3    -0.0072251288501224
   4     0.020142752743664
   5    -4.9680927728188e-05
   6    0.0013836766601988
   7    -0.0094371038487724
   8    -0.0041799451596972
   9    -0.002935397227964
  10     0.016181001164973
  11      0.00688787901863
  12    0.0044097455928984
  13    -0.040176452206801
  14     -0.01816123905734
  15    -0.0033653882768401
  16     0.012415509404839
  17    0.0022659186762941
  18     -0.53786051526015
  19    -0.088811997471781
  20     -0.41976173565796
  21     -0.15658043996322
  22     -0.32281820656551
  23     -0.26280498922674
  24    -0.042976979585077
  25     -0.20509368453463
  26    -0.076080385487488
  27     -0.15794289650584
  28    -0.0014633650613895
  29    -0.0026521875448519
  30    -0.0011838920781111
  31    -0.0015215908665313
  32    -0.0026480336619756
  33    0.00020759551361107
  34    -0.0025641854751056
  35    -0.00091108308703457
  36    0.0024868303465219
  37    0.0054766804785175
  38    0.0051640541373139
  39    -0.058503240081197
  40    -0.040505925698305
  41     0.003799048876375
  42    -0.049232721659437
  43    -0.034659113851565
  44    -0.0017713249227422
  45    0.0010039376320995
  46    -0.0019498920105753
  47    -0.00061671708166433
  48    0.0011891627287589
  49    0.00031995717343471
  50    0.0014869251915874
  51    -0.0032629535912333
  52    0.0099050128035326
  53    0.0035058019685446
  54    -0.0017911625665437
  55    -0.0016633958203382
  56    -0.00059321188578739
  57    0.0038002042297716
  58     0.002779803254362
  59    0.0006464958515318
  60    -0.0061288123500908
  61    -0.0075648042404551
  62    -0.003570331090242
  63    0.0016542962089586
  64    -0.008139258910977
  65    -0.0044973181770164
  66    0.0011878861521811
  67    -0.0002851996966283
  68    0.00049994811017998
  69    -0.001019281206502
  70    -0.0015544693316933
  71    0.0022049719044836
  72    -0.0012455417237538
  73    0.0012537413234217
  74    -0.0016118663429193
  75    -0.0041441098147565
  76    8.9999638297897e-05
  77    0.0008632204186099
  78    0.00032293196124357
  79    -0.00033705393481493
  80    0.00074577035462762
  81    -0.00061060667204367
  82    -0.0014469907889141
  83    8.8250062728307e-05
  84    -0.00058709761467216
  85    0.00019448973955797
  86    0.0044982825723347
  87    0.0035154995656244
  88     -0.02615739446418
  89    -0.013621899277598
  90    -0.0092662346378453
  91      0.06807239739492
  92     0.035354436847208
  93    -0.0050851199980482
  94     0.044328799660908
  95     0.021916764633077
  96     0.005178607544193
  97    -0.0005830894525349
  98    0.0028596635651802
  99    0.0027314354559612
 100    0.00065525070590593
 101    0.0011429425135145
 102    -0.0059135585099205
 103    0.0085408614356666
 104    0.0078955873185329
 105     0.020785701924128
 106    -0.015507428061944
 107    0.0078691557826194
 108    -0.053402938619756
 109     0.039983020379384
 110    -0.020961850015219
 111    -0.034323006168392
 112       0.0282443120817
 113    -0.010291884928989
 114     0.004789999172662
 115    -0.00032208490309072
 116    0.00033637059425107
 117    -0.0013379276543263
 118    0.0023714832210356
 119    -0.0017493183262591
 120    0.0087781845562481
 121    -0.013818226006067
 122    -0.0079828520367455
 123     -0.01617453334618
 124    -0.017953566979021
 125    -0.0040461477035522
 126     0.041346081280864
 127     0.045255582752376
 128     0.010971284386907
 129     0.026456484049306
 130     0.032828499047152
 131     0.007489426674553
 132    -0.0016508905287829
 133    -0.00044220154204232
 134    0.0012672996815658
 135    0.00080451863384284
 136    0.0025274783336014
 137    0.00025045064391808
 138    -0.0011795135790667
 139    0.0024146110769463
 140    0.0056949641153214
 141    -0.0021913315280774
 142    2.2809604215797e-06
 143    0.0017781566370517
 144    0.0060150741627251
 145    -0.00017612717455312
 146    -0.004981623979049
 147    0.0024586838671469
 148    -0.00014140704930474
 149    -0.0043339423900937
 150    8.6093365572585e-06
 151    0.00035197311900214
 152    3.1267026359743e-05
 153    -0.0001624120536174
 154    3.5520231953703e-05
 155    6.0214052173053e-05
 156    -0.00025116476267412
 157    0.00069558523849701
 158    0.00015012841325845
 159    -0.00051347672116008
 160    -0.00040839862971911
 161    -0.00077433147901491
 162    0.0015097617633143
 163    0.00092911944229633
 164    0.0018804788487086
 165    0.00060852946355822
 166    0.0024450188892192
 167    0.0028733269590488
 168    8.073427125168e-05
 169    -3.8557624778454e-05
 170    -5.384954028855e-05
 171    -5.2709752120604e-05
 172    -6.9491790867243e-05
 173    -0.00021197348824307
 174    0.00097063997840814
 175    -0.002139884602778
 176    -0.0054035532224012
 177     0.002475832739494
 178    0.0006133979159804
 179    -0.00084628600923998
 180    -0.0068727721868477
 181    -0.0019824161945746
 182    0.0022362598780773
 183    -0.0023732654067776
 184    -0.00093077983590764
 185    0.00098741998286968
 186    -0.00014037063338606
 187    -0.00015025993031514
 188    -6.8726293511477e-05
 189    0.00024202417375811
 190    0.00018984624036676
 Sym= A
 Ene=               2
 Spin= Alpha
 Occup=    1.00000
   1    0.0002634936315229
   2    0.0011139183560484
   3    -0.0029159080323938
   4    0.0060161795736482
   5    0.0047320162700587
   6    -0.00063835838103985
   7    0.0054454191225085
   8    -0.0022403309573855
   9    0.0012267270018059
  10    -0.011430086229943
  11    0.0054449225991006
  12    -0.0024436941500216
  13     0.019098948673832
  14    -0.0062362406085792
  15    -0.0017577630164712
  16    -0.018422325740577
  17     0.010549359752729
  18       0.4114418998506
  19      0.23154531513366
  20     -0.14340149599203
  21     0.055778003344403
  22     -0.59512282333618
  23      0.19640388168521
  24      0.11055302589001
  25     -0.06831054924625
  26     0.026210895127516
  27     -0.28409261996964
  28    0.00019953925777605
  29    0.0025574141839655
  30      0.00118524863084
  31    0.0027937692800675
  32    -0.0038710327602108
  33    -0.0013793559711682
  34    -0.0057894962741872
  35    0.0014734925142665
  36    -0.0043753051077885
  37    -0.0053248505384689
  38    -0.011377735043656
  39       -0.103793756006
  40      0.05653004670537
  41    -0.0097452168697445
  42    -0.095760402012455
  43     0.050747736384345
  44    0.0019570251459607
  45    -0.001604160527188
  46    -0.0024832561039869
  47    0.00048250383930074
  48     0.001944688852732
  49    -0.00049003622370721
  50    -0.0021180249431479
  51    0.0053535506001018
  52     -0.01211323476038
  53    -0.010005746198183
  54     0.002822791448433
  55    -0.0032032998428127
  56    0.0010044449728834
  57    -0.0061277623678768
  58    0.0055686740734857
  59    -0.0011860529788484
  60    0.0093827691595528
  61    -0.013989217728089
  62    0.0058032732709366
  63    -0.0040583173503653
  64    -0.0055008607330913
  65    0.0040481942329735
  66    -0.0009601514971742
  67    0.00017117711963673
  68    0.0001431870430931
  69    0.0021785780326314
  70    -0.0022055530811791
  71    -0.001836958541045
  72    0.0017851996328102
  73    0.0010638250184651
  74    0.0031882219449798
  75    -0.0066074737300307
  76    -0.00021141236277093
  77    -0.001177984471329
  78    0.00030338020874281
  79    0.00017335100064055
  80    0.0012131439774074
  81    0.00082026419730349
  82    -0.0024002462582133
  83    -0.0026854879266178
  84     0.013787966580703
  85    -0.020528219716062
  86    -0.027462848350054
  87     0.010610740170556
  88     0.023529579847628
  89    -0.023385517056515
  90    -0.027255331673212
  91    -0.060758735122438
  92      0.06005764239445
  93    -0.017426219201885
  94    -0.042553533853633
  95     0.046094106899786
  96    -0.00062616557994349
  97    -0.0033782045043514
  98    -0.0017870493768119
  99    -0.0011845687676592
 100    0.00090779335249307
 101    -0.00095963536292196
 102    0.0046711431434887
 103    -0.0083434970715114
 104    -0.0060365401715579
 105    -0.0078096034299264
 106    0.0072175921675229
 107    0.0035982039291884
 108     0.020145541696967
 109    -0.018950924533304
 110    -0.0090042892396446
 111     0.013904980524364
 112    -0.013097585159672
 113    -0.0084763958608279
 114    -0.00044938205465522
 115    0.00027985066292931
 116    -0.00048154590391652
 117    0.0002293946310199
 118    -0.0011624207051214
 119    0.0032090761292988
 120    -0.016147916979698
 121     0.025489263860371
 122     0.030047970365735
 123    -0.0033661982519361
 124     0.037272522931716
 125    -0.018857840402072
 126    0.0087275689457641
 127     -0.09556648612463
 128     0.048294745591368
 129    0.0034151727895059
 130    -0.070907688905075
 131     0.033464029207225
 132    -0.00029898785495411
 133    -2.7906870837771e-05
 134      0.00193002533337
 135    0.0017393042310901
 136    0.0029823997312865
 137    -8.1987148885288e-05
 138    0.00027222287894631
 139    -0.001208097471182
 140    0.0010731036534701
 141    0.00011066491228137
 142    -0.001587832300847
 143    0.00018547418847543
 144    -0.00042722923008025
 145    0.0039885531339152
 146    -0.00029110415506853
 147    -0.00027706224611666
 148    0.0054823335760461
 149    -0.0018680505796207
 150    -0.00011734806973177
 151    -5.2180986500634e-05
 152    0.00011517745777743
 153    -4.9267503095921e-05
 154    -0.0002238908633273
 155    0.00023203559942602
 156    -0.0011078260039732
 157    0.0021976805545748
 158    0.0073562082948386
 159    -0.0031515165649798
 160    -0.00077208528566677
 161    0.00070999809594775
 162    0.0086904338163042
 163    0.0017039940855571
 164    -0.0016247990548482
 165    0.0051327663573566
 166    0.0022492344943376
 167    0.00048300408277633
 168    9.4860546167325e-05
 169    -3.0489271413308e-05
 170    6.1335176246107e-05
 171    -0.0002866642216894
 172    8.5724758667747e-07
 173    -0.00048034190827341
 174    0.0019480854571314
 175    -0.0057555216915711
 176    -0.0038984373646726
 177    0.0041374388762092
 178    0.0015563644017115
 179    0.00080773840111335
 180    -0.011378113945432
 181    -0.0046136357458765
 182    -0.0019479491306206
 183    -0.0061407693644043
 184    -0.0027259904882321
 185    -0.0042371529501131
 186    -0.00031312756654097
 187    5.1784375134106e-05
 188    -5.0040158584081e-05
 189    0.00053603819615211
 190    0.00050685485288758
 Sym= A
 Ene=               3
 Spin= Alpha
 Occup=    1.00000
   1    -0.00063680221363103
   2    -0.0022786046446763
   3    0.0078878837292399
   4    -0.0051086369385261
   5      0.00812462393438
   6    -0.011233533307189
   7    0.0060405748860355
   8     0.006766307846362
   9     0.023647205942328
  10    -0.011285042328523
  11    -0.012919563827376
  12    -0.036811510673433
  13     0.023961089162096
  14      0.02677184746168
  15    0.0074049359241305
  16    -0.011759879677953
  17    -0.017732636601559
  18    -0.024964983917795
  19     -0.59378882881506
  20      0.35808056515528
  21      0.10112751134124
  22     -0.32085607500941
  23    -0.0098840233233965
  24     -0.28366835137347
  25      0.17037592964559
  26     0.044726386509767
  27     -0.15187216101566
  28    0.0025967714168397
  29    -0.0049344909691487
  30    0.0016256227980281
  31    -0.0033106448633148