[Molden Format]
made by pyscf v[2.4.0]
[Atoms] (AU)
Fe   1   26     3.17068844873907     0.00098706064664     0.12237737881307
O   2   8     0.00000000000000     0.00000000000000    -0.89004350580623
Fe   3   26    -3.17068844873907    -0.00098706064664     0.12237737881307
Cl   4   17     3.53383895113107    -2.07485195383062     3.76228752659000
Cl   5   17     5.54152580550813    -1.85590924879884    -2.78672786652360
Cl   6   17     4.48169216485503     3.92976278472880    -0.95330240907949
Cl   7   17    -3.53383895113107     2.07485195383062     3.76228752659000
Cl   8   17    -5.54152580550813     1.85590924879884    -2.78672786652360
Cl   9   17    -4.48169216485503    -3.92976278472880    -0.95330240907949
[GTO]
1 0
 s    6 1.00
              61132.62  0.0017661109761772
              9179.342   0.013530379817491
              2090.857   0.066731279099873
              589.2479    0.23148229687757
              188.7543    0.47970579352933
              64.44629    0.35019759527624
 s    6 1.00
               1259.98   0.002438014026839
              299.8761   0.032240480354921
              96.84917    0.12657240139338
               36.3102  -0.031399020345658
              14.72996   -0.62075930683366
              6.066075   -0.45029140495706
 s    6 1.00
              50.43485  -0.0038732559842369
              16.83929   0.071965979707118
              7.192086    0.25565909895954
               3.05342   -0.28828369882676
              1.273643   -0.73428219701167
              0.504091   -0.20493529916597
 s    3 1.00
              1.950316   0.056948690305124
              0.736721    0.28829150154463
              0.114177    -1.1381590060981
 s    1 1.00
              0.041148                   1
 p    6 1.00
               1259.98  0.0040280186654072
              299.8761   0.031446467387857
              96.84917    0.13683168863389
               36.3102    0.34872357103281
              14.72996    0.46179306164054
              6.066075    0.20430578302906
 p    6 1.00
              50.43485  -0.0070171278804837
              16.83929  -0.028776599509875
              7.192086   0.061813828947182
               3.05342     0.3954945932639
              1.273643    0.49890589150259
              0.504091    0.17912509694913
 p    3 1.00
              1.950316   -0.45937961634956
              0.736721    0.28521391015091
              0.114177    0.90764853230368
 p    1 1.00
              0.041148                   1
 d    3 1.00
              23.14994   0.088769354792419
              6.122368    0.38963192103518
              1.846601    0.70148163787111
 d    1 1.00
              0.504361                   1
 f    1 1.00
                   0.8                   1

2 0
 s    6 1.00
             5484.6717   0.001831099805527
             825.23495   0.013950098518422
             188.04696    0.06844509273075
               52.9645    0.23271427528445
              16.89757    0.47019295006289
             5.7996353    0.35852086192309
 s    3 1.00
             15.539616   -0.11077750382508
             3.5999336   -0.14802630511126
             1.0137618     1.1307670390447
 s    1 1.00
             0.2700058                   1
 p    3 1.00
             15.539616   0.070874299543311
             3.5999336    0.33975279781076
             1.0137618    0.72715859531445
 p    1 1.00
             0.2700058                   1
 d    1 1.00
                   0.8                   1

3 0
 s    6 1.00
              61132.62  0.0017661109761772
              9179.342   0.013530379817491
              2090.857   0.066731279099873
              589.2479    0.23148229687757
              188.7543    0.47970579352933
              64.44629    0.35019759527624
 s    6 1.00
               1259.98   0.002438014026839
              299.8761   0.032240480354921
              96.84917    0.12657240139338
               36.3102  -0.031399020345658
              14.72996   -0.62075930683366
              6.066075   -0.45029140495706
 s    6 1.00
              50.43485  -0.0038732559842369
              16.83929   0.071965979707118
              7.192086    0.25565909895954
               3.05342   -0.28828369882676
              1.273643   -0.73428219701167
              0.504091   -0.20493529916597
 s    3 1.00
              1.950316   0.056948690305124
              0.736721    0.28829150154463
              0.114177    -1.1381590060981
 s    1 1.00
              0.041148                   1
 p    6 1.00
               1259.98  0.0040280186654072
              299.8761   0.031446467387857
              96.84917    0.13683168863389
               36.3102    0.34872357103281
              14.72996    0.46179306164054
              6.066075    0.20430578302906
 p    6 1.00
              50.43485  -0.0070171278804837
              16.83929  -0.028776599509875
              7.192086   0.061813828947182
               3.05342     0.3954945932639
              1.273643    0.49890589150259
              0.504091    0.17912509694913
 p    3 1.00
              1.950316   -0.45937961634956
              0.736721    0.28521391015091
              0.114177    0.90764853230368
 p    1 1.00
              0.041148                   1
 d    3 1.00
              23.14994   0.088769354792419
              6.122368    0.38963192103518
              1.846601    0.70148163787111
 d    1 1.00
              0.504361                   1
 f    1 1.00
                   0.8                   1

4 0
 s    6 1.00
               25180.1  0.0018330003117875
               3780.35   0.014034002387139
               860.474   0.069097011753181
               242.145    0.23745204038983
               77.3349    0.48303408216255
                26.247    0.33985605780843
 s    6 1.00
               491.765  -0.0022974019889149
               116.984  -0.030714026589855
               37.4153   -0.11252809741822
               13.7834   0.045016038971443
               5.45215    0.58935351021719
               2.22588    0.46520640274012
 s    3 1.00
               3.18649    -0.2518312880459
               1.14427   0.061589315011948
              0.420377     1.0601854225489
 s    1 1.00
              0.142657                   1
 p    6 1.00
               491.765  0.0039894005477754
               116.984   0.030318004162896
               37.4153    0.12988001783353
               13.7834     0.3279510450302
               5.45215    0.45352706227276
               2.22588    0.25215403462269
 p    3 1.00
               3.18649   -0.01429901271425
               1.14427    0.32357228771069
              0.420377    0.74350766110453
 p    1 1.00
              0.142657                   1
 d    1 1.00
                  0.75                   1

5 0
 s    6 1.00
               25180.1  0.0018330003117875
               3780.35   0.014034002387139
               860.474   0.069097011753181
               242.145    0.23745204038983
               77.3349    0.48303408216255
                26.247    0.33985605780843
 s    6 1.00
               491.765  -0.0022974019889149
               116.984  -0.030714026589855
               37.4153   -0.11252809741822
               13.7834   0.045016038971443
               5.45215    0.58935351021719
               2.22588    0.46520640274012
 s    3 1.00
               3.18649    -0.2518312880459
               1.14427   0.061589315011948
              0.420377     1.0601854225489
 s    1 1.00
              0.142657                   1
 p    6 1.00
               491.765  0.0039894005477754
               116.984   0.030318004162896
               37.4153    0.12988001783353
               13.7834     0.3279510450302
               5.45215    0.45352706227276
               2.22588    0.25215403462269
 p    3 1.00
               3.18649   -0.01429901271425
               1.14427    0.32357228771069
              0.420377    0.74350766110453
 p    1 1.00
              0.142657                   1
 d    1 1.00
                  0.75                   1

6 0
 s    6 1.00
               25180.1  0.0018330003117875
               3780.35   0.014034002387139
               860.474   0.069097011753181
               242.145    0.23745204038983
               77.3349    0.48303408216255
                26.247    0.33985605780843
 s    6 1.00
               491.765  -0.0022974019889149
               116.984  -0.030714026589855
               37.4153   -0.11252809741822
               13.7834   0.045016038971443
               5.45215    0.58935351021719
               2.22588    0.46520640274012
 s    3 1.00
               3.18649    -0.2518312880459
               1.14427   0.061589315011948
              0.420377     1.0601854225489
 s    1 1.00
              0.142657                   1
 p    6 1.00
               491.765  0.0039894005477754
               116.984   0.030318004162896
               37.4153    0.12988001783353
               13.7834     0.3279510450302
               5.45215    0.45352706227276
               2.22588    0.25215403462269
 p    3 1.00
               3.18649   -0.01429901271425
               1.14427    0.32357228771069
              0.420377    0.74350766110453
 p    1 1.00
              0.142657                   1
 d    1 1.00
                  0.75                   1

7 0
 s    6 1.00
               25180.1  0.0018330003117875
               3780.35   0.014034002387139
               860.474   0.069097011753181
               242.145    0.23745204038983
               77.3349    0.48303408216255
                26.247    0.33985605780843
 s    6 1.00
               491.765  -0.0022974019889149
               116.984  -0.030714026589855
               37.4153   -0.11252809741822
               13.7834   0.045016038971443
               5.45215    0.58935351021719
               2.22588    0.46520640274012
 s    3 1.00
               3.18649    -0.2518312880459
               1.14427   0.061589315011948
              0.420377     1.0601854225489
 s    1 1.00
              0.142657                   1
 p    6 1.00
               491.765  0.0039894005477754
               116.984   0.030318004162896
               37.4153    0.12988001783353
               13.7834     0.3279510450302
               5.45215    0.45352706227276
               2.22588    0.25215403462269
 p    3 1.00
               3.18649   -0.01429901271425
               1.14427    0.32357228771069
              0.420377    0.74350766110453
 p    1 1.00
              0.142657                   1
 d    1 1.00
                  0.75                   1

8 0
 s    6 1.00
               25180.1  0.0018330003117875
               3780.35   0.014034002387139
               860.474   0.069097011753181
               242.145    0.23745204038983
               77.3349    0.48303408216255
                26.247    0.33985605780843
 s    6 1.00
               491.765  -0.0022974019889149
               116.984  -0.030714026589855
               37.4153   -0.11252809741822
               13.7834   0.045016038971443
               5.45215    0.58935351021719
               2.22588    0.46520640274012
 s    3 1.00
               3.18649    -0.2518312880459
               1.14427   0.061589315011948
              0.420377     1.0601854225489
 s    1 1.00
              0.142657                   1
 p    6 1.00
               491.765  0.0039894005477754
               116.984   0.030318004162896
               37.4153    0.12988001783353
               13.7834     0.3279510450302
               5.45215    0.45352706227276
               2.22588    0.25215403462269
 p    3 1.00
               3.18649   -0.01429901271425
               1.14427    0.32357228771069
              0.420377    0.74350766110453
 p    1 1.00
              0.142657                   1
 d    1 1.00
                  0.75                   1

9 0
 s    6 1.00
               25180.1  0.0018330003117875
               3780.35   0.014034002387139
               860.474   0.069097011753181
               242.145    0.23745204038983
               77.3349    0.48303408216255
                26.247    0.33985605780843
 s    6 1.00
               491.765  -0.0022974019889149
               116.984  -0.030714026589855
               37.4153   -0.11252809741822
               13.7834   0.045016038971443
               5.45215    0.58935351021719
               2.22588    0.46520640274012
 s    3 1.00
               3.18649    -0.2518312880459
               1.14427   0.061589315011948
              0.420377     1.0601854225489
 s    1 1.00
              0.142657                   1
 p    6 1.00
               491.765  0.0039894005477754
               116.984   0.030318004162896
               37.4153    0.12988001783353
               13.7834     0.3279510450302
               5.45215    0.45352706227276
               2.22588    0.25215403462269
 p    3 1.00
               3.18649   -0.01429901271425
               1.14427    0.32357228771069
              0.420377    0.74350766110453
 p    1 1.00
              0.142657                   1
 d    1 1.00
                  0.75                   1

[5d]
[7f]
[9g]

[MO]
 Sym= A
 Ene=               0
 Spin= Alpha
 Occup=    1.00000
   1    -0.0010761527172546
   2    -0.0047194623548546
   3     0.011406038041548
   4    -0.028243242715829
   5    0.0020843485127274
   6    -0.0010186779206575
   7    -0.0040894887717627
   8    0.0058193144533882
   9    0.0019687605883944
  10    0.0076562291816701
  11    -0.010344598634855
  12    -0.0035059489886728
  13    -0.016410103232872
  14     0.024119877334612
  15    -0.001366868937464
  16     0.010090035890491
  17    -0.010000922683595
  18     -0.36724417704514
  19       0.3162796575181
  20       0.4138031646233
  21     -0.41456888387271
  22      -0.1629292881625
  23      -0.1779710836986
  24      0.15463042007874
  25      0.20209511484722
  26     -0.20287630275418
  27    -0.080941450622916
  28    -0.002174242702195
  29    0.00099203610547342
  30    0.0013997575871501
  31    -0.00059741393802492
  32    0.00096927482115478
  33    -0.0015613788314882
  34    -0.0001894915122963
  35    0.00037473671878287
  36    -0.0010311152780346
  37    -0.0033168514903634
  38    -0.0019193716409206
  39    0.00063148254653757
  40      0.02015117342538
  41    -0.0026851718605156
  42    0.0021213899845196
  43     0.018414922255389
  44    -0.00052980561354676
  45    -0.00014118135769411
  46    0.00093432357062398
  47    -0.00053793479707374
  48    -0.00026484058618076
  49    -0.00015790207344442
  50    -0.00072022149760257
  51    0.0014995719973015
  52    -0.0041672158949753
  53    -0.0073910724400941
  54    0.0009863888510293
  55    -1.2556672574193e-05
  56    0.00036021989086158
  57    -0.0022114249777316
  58    0.00015186960063449
  59    -0.00063198605080786
  60    0.0025358540983811
  61    0.0004323798677284
  62    0.0013268138863356
  63    -0.0034377571035723
  64    -0.002509927142671
  65    0.0043927093157752
  66    -0.00014845056637014
  67    -6.5056075119484e-05
  68    6.6033005624202e-05
  69    0.00029231536227907
  70    1.1751427913745e-05
  71    -0.00084806431253664
  72    0.00087776335265846
  73    -0.00024090351100142
  74    0.00079075279057729
  75    -0.00015549734343445
  76    -0.0001093134486172
  77    -0.00047899139978249
  78    -7.7054244891708e-05
  79    0.0001707222778048
  80    -5.0133732844273e-06
  81    0.00029440333847987
  82    -4.4416029467027e-05
  83    0.0020849215224344
  84    -0.010628257807315
  85      0.01606457178202
  86     0.012537395402299
  87     0.014837953802047
  88    -0.018502337608848
  89      0.01590208855185
  90    -0.038405210473437
  91      0.04740299970752
  92    -0.040160261456455
  93    -0.023598169331804
  94     0.031612888962123
  95     -0.02980711419426
  96    0.0013843500210349
  97    -0.0028345046575856
  98    0.0018992396133948
  99    -9.6210270307778e-05
 100    0.0020039289849782
 101    8.4791564705766e-05
 102    -0.00021307415676442
 103    0.0015027373560096
 104    -0.002272755554728
 105    -0.0079608804462124
 106      -0.0276779189529
 107     0.010583801622589
 108     0.020502126365445
 109     0.071806583947775
 110    -0.027447879992219
 111     0.013410555262468
 112     0.044986526639977
 113    -0.017812018647164
 114    0.0024351020736794
 115    -0.0024025493898873
 116    -0.0033475339797753
 117    0.0037689697414551
 118    0.0031350729878298
 119    -0.0011668539154667
 120    0.0060725538794785
 121    -0.0085279128848583
 122    -0.013558003008415
 123    -0.014410917532257
 124    -0.0034698244415923
 125      0.02569616479157
 126     0.037176364358906
 127     0.008603082442659
 128    -0.066415452186552
 129     0.023917516080177
 130    0.0098639713758954
 131    -0.042373707032119
 132    0.0019995072439239
 133    -0.0022853194237447
 134    -0.0035565880966245
 135    0.0032005529520064
 136    0.0014138648459435
 137    -0.00014914905687908
 138    0.00052816475296734
 139    -0.0020507760049386
 140    0.00039756179372196
 141     0.001117701851209
 142    -0.0004353935062823
 143    -0.00033067147525666
 144    -0.0030264894966363
 145    0.0012117829968002
 146    0.00099729182300882
 147    -0.0012602460703828
 148    0.00087465460327201
 149    0.00022562381236931
 150    -6.5982085880724e-05
 151    -0.0001077884448689
 152    3.2471337233977e-05
 153    8.5358803011755e-05
 154    -0.00012917202432759
 155    2.5498119833843e-05
 156    -0.00017992125716761
 157    4.3763459680407e-05
 158    0.0026424524424281
 159    -0.00039345071200072
 160    -3.3542753653105e-05
 161    0.0004122381166604
 162    0.0010789401120778
 163    -2.7295452526018e-05
 164    -0.00092765028971512
 165    0.00081467029066439
 166    0.00035186767402424
 167    -0.0011093501857986
 168    -2.2032722019705e-05
 169    -7.5385226601244e-07
 170     5.04242546568e-05
 171    -1.3132687093855e-05
 172    3.1585408910596e-05
 173    -4.2585968354921e-05
 174    4.5277464784484e-05
 175    -0.00098354667936409
 176    0.0017784024400418
 177    0.00020310659378961
 178    0.00012184254280103
 179    0.00048179541394482
 180    -0.00074908489950199
 181    -0.00042345602251922
 182    -0.0012693736678275
 183    0.00089728619470905
 184    0.0005706850945466
 185    -0.0010922146807953
 186    1.5347880510823e-05
 187    5.3325457635771e-05
 188    1.3422761104922e-05
 189    1.4420289276213e-05
 190    2.6236438762231e-05
 Sym= A
 Ene=               1
 Spin= Alpha
 Occup=    1.00000
   1    0.00091158381106381
   2      0.00415427208258
   3    -0.0093022461529451
   4     0.026734670068801
   5    -0.00024597338504574
   6    0.0011519592170057
   7    -0.0086342511308168
   8    -0.006758816250034
   9    -0.0021309524465302
  10     0.013685992128663
  11       0.0114127071924
  12    0.0042330333361021
  13    -0.038567709756746
  14    -0.028691921172899
  15    -0.0031474986231118
  16    0.0086287665402309
  17    0.0076753411803073
  18      -0.3848796314567
  19     -0.06748564351257
  20      -0.5454359983671
  21     -0.10740815942453
  22     -0.37894253583464
  23      -0.1881827828262
  24     -0.03361488415826
  25     -0.26447864846058
  26    -0.051537208513607
  27     -0.18293729645068
  28    -0.0011499370825576
  29    -0.001861253840651
  30    -0.0012858067021427
  31    -0.00082258708221214
  32    -0.0032630553324672
  33    -1.1360558587433e-05
  34    -0.0032783578306677
  35    -0.0010622055956118
  36    0.0022922256263301
  37    0.0067297638071739
  38    0.0045928368974211
  39    -0.061953874632057
  40    -0.021885767965896
  41       0.0044602665849
  42    -0.059144173243342
  43    -0.018968972476045
  44    -0.001131114165304
  45    0.00076119543571108
  46    -0.0023393887205224
  47    -0.00032661919101686
  48    0.0017435560048556
  49    0.00022340295899566
  50    0.0010494517304174
  51    -0.002111128502953
  52    0.0071126786625758
  53    0.0028023638382839
  54    -0.0012803285330758
  55    -0.0022554742002238
  56    -5.9040674326925e-05
  57    0.0025148799763278
  58    0.0034213933372673
  59    6.4811170259175e-05
  60    -0.0042972819496907
  61    -0.010231438460426
  62    -0.00057444418229366
  63    0.0017112324743453
  64    -0.0080368909891345
  65    -0.0037765330749486
  66    0.00012221963005267
  67    0.00026445532735431
  68    -3.1915197814597e-05
  69    -0.00050655663228402
  70    9.6552079948233e-05
  71    0.0014059146110318
  72    -0.00056020108815301
  73    0.0011682110677507
  74    -0.00091417311469976
  75    -0.0042110863911142
  76    1.5593579111705e-05
  77    0.00053649287416348
  78    0.00034166738812391
  79    -0.00023436563037729
  80    0.00087989258328293
  81    -0.00040162479718223
  82    -0.0016643002864893
  83    -0.00098455175955774
  84    0.0049320324727914
  85    -0.007908330218172
  86    -0.0044824981744547
  87      0.00289578732883
  88    -0.018223143897157
  89    -0.023542532877024
  90    -0.0076452495426745
  91     0.047881379358127
  92     0.060719197856389
  93    -0.0041257737421493
  94     0.029703079163029
  95     0.040900734359491
  96    0.0050147495829946
  97    -0.00071586069030456
  98    0.0021940422902009
  99    0.0025375977556483
 100    0.0005472240778718
 101    0.0012290786440222
 102    -0.0065747243535299
 103    0.0083135937915554
 104     0.010124697267618
 105     0.021629900225925
 106    -0.011420714512731
 107    0.0032809923763465
 108     -0.05537929683873
 109     0.029249473321293
 110    -0.0092527442975763
 111    -0.036107441618577
 112     0.021945921600839
 113    -0.0021399768135645
 114    0.0041194357298183
 115    0.00012223858231263
 116    0.00069543348004326
 117    -0.0018224871458748
 118    0.0015556565626025
 119    -0.0011467569120672
 120    0.0057704572934852
 121    -0.0089011317871625
 122    -0.0015599224203254
 123    -0.015154509265531
 124    -0.012992564164602
 125    -0.012225185366176
 126     0.038659673198424
 127     0.032452480333611
 128      0.03222986995629
 129     0.024380834181817
 130     0.023000580324668
 131     0.021102393576456
 132    -0.0021664631415417
 133    -2.4593705136417e-05
 134    0.0023214695853241
 135    0.00052899376576549
 136    0.0030396271390328
 137    0.00020309286642062
 138    -0.000974523614873
 139    0.0018607715331352
 140    0.0045744990552799
 141    -0.0022552030579752
 142    -0.00040771275410685
 143    0.0016728943094416
 144    0.0061391538370017
 145    0.00096649347128603
 146    -0.0045736223690965
 147    0.0024190421270878
 148     0.001083039299558
 149    -0.004202088861565
 150    -8.6977237393768e-06
 151    0.00027079451486314
 152    1.8891645716748e-05
 153    -0.00013335863751986
 154    -1.2181489083635e-05
 155    0.00013901704638805
 156    -0.00056773844419642
 157    0.0016683306292267
 158    0.0015030174874756
 159    -0.0012995713520813
 160    -0.00046657127720591
 161    -0.00063974433613185
 162    0.0037349483584952
 163    0.0010245778100677
 164    0.0016175526831639
 165    0.0017830337165182
 166     0.002379869942074
 167    0.0028784994586965
 168    0.00010002960912657
 169    -9.560284460485e-06
 170    -5.437937707923e-05
 171    -9.9793152705469e-05
 172    -6.1107777048651e-05
 173    -0.00028794900948983
 174    0.0012823169255911
 175    -0.0030327110391337
 176    -0.0058571622495872
 177    0.0030390643146563
 178    0.0008855637748251
 179    -0.00051219289210222
 180    -0.0083608950317982
 181    -0.0027548620635945
 182    0.0013493571580161
 183    -0.0035757627642477
 184    -0.0015150670511791
 185    -9.1517875686373e-05
 186    -0.00015668895278219
 187    -0.00012962334074253
 188    -6.6378249388418e-05
 189    0.00029044330183776
 190    0.00018868214214201
 Sym= A
 Ene=               2
 Spin= Alpha
 Occup=    1.00000
   1    0.0002336380975701
   2    0.00069324328911436
   3    -0.0031065550676769
   4    -0.0010038093643548
   5    0.0033200589569924
   6    0.0026717332572142
   7    0.0069106834599827
   8    0.00065900796634902
   9    -0.0060735915332611
  10    -0.013909301430303
  11    -0.00075467482301479
  12    0.0075555232027217
  13     0.025753584330183
  14    0.0028678524044992
  15    -0.0026979971322046
  16    -0.019042200533176
  17    0.0054351452866734
  18      0.41958423501454
  19      0.31569478202091
  20     0.028127114871793
  21      0.11217355318924
  22     -0.56308771413069
  23      0.19956710555413
  24      0.15085025676088
  25     0.015202518411236
  26     0.052395590688453
  27     -0.26629941571652
  28    -1.5814286965636e-05
  29    0.0026730766328191
  30    0.0013823856737337
  31    0.0034304105796189
  32    -0.003107444049012
  33    -0.00097533445733602
  34    -0.0052141064523272
  35    0.0046550127393899
  36    -0.010594868131218
  37    -0.018186485782777
  38    -0.026813212986142
  39    -0.077201848785587
  40      0.04793426142081
  41    -0.029778002533114
  42     -0.08135048661764
  43     0.045907147873276
  44    0.0020816547656943
  45    -0.0028498964421506
  46    -0.0016574367035092
  47    -0.00024370701645605
  48    0.0018667513073946
  49    -0.00082607299081907
  50    -0.0033893287729629
  51    0.0088272432621488
  52    -0.017446716922468
  53    -0.0094376427802335
  54    0.0042716908972474
  55    -0.0032542576472282
  56    0.0008543843922565
  57    -0.0087796098986027
  58    0.0049286592594107
  59    5.0399626715916e-05
  60     0.013571934325007
  61    -0.014530791612973
  62    0.0070545723301505
  63    -0.004122133864237
  64    -0.0039392354899642
  65    0.0052200254812008
  66    -0.0011792573131197
  67    -0.0011678521335987
  68    0.0003095061400194
  69    0.0020710259345983
  70    8.4360274935676e-05
  71    -0.0021617596957461
  72    0.0010076732114431
  73    0.00089751914674863
  74    0.0035249572241741
  75    -0.0049063887482238
  76    -6.7044550676539e-05
  77    -0.0011504207940001
  78    0.00017233807521897
  79    -6.9009346465863e-05
  80    0.00099644602512555
  81    0.00095602836024926
  82    -0.0019751082502512
  83    -0.0019268097265128
  84     0.010008856735804
  85    -0.014284869589008
  86    -0.021978113694792
  87     0.014616454450562
  88     0.024268569818554
  89    -0.013647783886819
  90    -0.037739330372988
  91    -0.062798054089394
  92     0.034907241532132
  93    -0.024255761797876
  94    -0.043211381370686
  95     0.028716941385905
  96    -0.0016672509304466
  97    -0.0041922885012215
  98    -0.0022026457589649
  99    -0.0018299814936129
 100    0.0013361292539967
 101    -0.0012390004292723
 102    0.0061833026032251
 103    -0.010227930683855
 104    -0.010479354615545
 105    -0.010740779834244
 106    0.0069945464499973
 107     0.005799040420341
 108     0.027687332913762
 109    -0.018315515230477
 110    -0.014680805729491
 111     0.018899984104147
 112    -0.014467925047013
 113    -0.013522102357102
 114    -0.00058968818788598
 115    0.00024551916963571
 116    -0.00078762744107701
 117    0.00072717184668019
 118    -0.00093953671593379
 119    0.0037615744594402
 120    -0.018763695124789
 121     0.030445051384046
 122     0.030904653746553
 123    0.0013130247612566
 124     0.043765903569183
 125    -0.013933086506782
 126    -0.0032638152139104
 127     -0.11207191970901
 128     0.035410365838476
 129    -0.0049724936721915
 130    -0.082155567428537
 131     0.025538525588077
 132    0.00045954037359858
 133    -0.00022940723235946
 134    0.00085368198735624
 135    0.0020006978278503
 136    0.0022575320902035
 137    -0.00018397690668174
 138    0.00072867828674752
 139    -0.0022885824755089
 140    -0.0006812388476439
 141    0.00052938876188054
 142    -0.002007651152941
 143    -0.00035749956071026
 144    -0.0016772510678833
 145    0.0052651528299506
 146    0.0012025183681357
 147    -0.0006524404574275
 148    0.0060614427291999
 149    -0.00037344151696646
 150    -0.00010555239074053
 151    -0.0001467859927083
 152    3.2321587524656e-05
 153    1.4061665569474e-05
 154    -0.00024112317995247
 155    0.00023402265485379
 156    -0.0010240853747896
 157    0.0026075402847578
 158    0.0071251400375759
 159    -0.0027084453184339
 160    -0.00077023461430911
 161    0.00068960906938583
 162     0.007598049728422
 163    0.0016830949595664
 164    -0.0013723393505891
 165    0.0042207848028185
 166    0.0018691039780051
 167    3.0573262638479e-06
 168    -1.1417668054341e-05
 169    7.2795223165935e-05
 170    5.4509388616619e-05
 171    -0.00011780128234082
 172    -7.9812596285479e-05
 173    -0.00055359220292753
 174    0.0022236072879186
 175    -0.0067227869652311
 176    -0.0037835651125746
 177    0.0041965755218267
 178    0.0019719338576767
 179    0.0011477206839547
 180    -0.011553948106558
 181    -0.0057551626707335
 182    -0.0029618118740009
 183    -0.006813098302772
 184    -0.0035988156425144
 185    -0.0045950647276368
 186    -0.00029290293117512
 187    2.4489507858267e-05
 188    -0.0001141307799689
 189    0.00050618352408388
 190    0.0004832981565013
 Sym= A
 Ene=               3
 Spin= Alpha
 Occup=    1.00000
   1    -0.00081096003018926
   2    -0.0028166598533225
   3    0.0097275607993402
   4    -0.0048139333774436
   5    0.0090835228591042
   6    -0.014231815748381
   7    0.0047464936328693
   8    0.0052278903845228
   9     0.029511933856659
  10    -0.0095790819773559
  11    -0.010087813818745
  12    -0.046580076817003
  13     0.017277891850083
  14     0.021236497130601
  15     0.008486517150015
  16    -0.010442738684855
  17    -0.015651116326592
  18    -0.030714452365426
  19     -0.61441442551774
  20      0.32183435793633
  21     0.017895486224241
  22     -0.34183474751658
  23    -0.012480984598806
  24     -0.29197433721694
  25      0.15242344960414
  26     0.004165077541875
  27     -0.16131743824043
  28    0.0025909169852235
  29    -0.004687399392527
  30    0.0017245360095619
  31    -0.0036915053457832